[Molden Format]
[Title]
 Molden file created by orca_2mkl for BaseName=orca

[Atoms] AU
C    1   6         28.9203639250        30.8683347617        32.1827427750 
C    2   6         28.2756841065        29.2428944128        29.8420400996 
C    3   6         30.3526279666        29.0820309701        27.6468243011 
S    4  16         33.4987421186        28.2760506795        28.4343750149 
H    5   1         27.4153986835        31.1329780548        33.4542478443 
H    6   1         29.5546043152        32.7585000651        31.5259111726 
H    7   1         30.4076818499        29.9002875079        33.2482166200 
H    8   1         26.6745885786        29.9992467997        28.8649740449 
H    9   1         27.9712010177        27.3582578697        30.5794101463 
H   10   1         29.7035643373        27.8181404068        26.2523478190 
H   11   1         30.5624871408        30.9091080320        26.7718969837 
H   12   1         34.5696822107        30.5607966906        29.1036394292 
[GTO]
  1 0
s   8 1.0 
     8236.0000000000         0.3342267437
     1235.0000000000         0.6230746416
      280.8000000000         1.0531059072
       79.2700000000         1.5831631342
       25.5900000000         1.9450988312
        8.9970000000         1.6429469100
        3.3190000000         0.6196591261
        0.3643000000        -0.0030667276
s   8 1.0 
     8236.0000000000        -0.1210101098
     1235.0000000000        -0.2265691066
      280.8000000000        -0.3857532897
       79.2700000000        -0.5967016836
       25.5900000000        -0.7858351262
        8.9970000000        -0.8165330321
        3.3190000000        -0.5188700868
        0.3643000000         0.3477346660
s   1 1.0 
        0.9059000000         0.6617901318
s   1 1.0 
        0.1285000000         0.1529633682
p   3 1.0 
       18.7100000000         2.1868515589
        4.1330000000         2.0503123413
        1.2000000000         1.4599445297
p   1 1.0 
        0.3827000000         0.4290551959
p   1 1.0 
        0.1209000000         0.1016185431
d   1 1.0 
        1.0970000000         3.3522135855
d   1 1.0 
        0.3180000000         0.3838994974
f   1 1.0 
        0.7610000000         3.0840084332

  2 0
s   8 1.0 
     8236.0000000000         0.3342267437
     1235.0000000000         0.6230746416
      280.8000000000         1.0531059072
       79.2700000000         1.5831631342
       25.5900000000         1.9450988312
        8.9970000000         1.6429469100
        3.3190000000         0.6196591261
        0.3643000000        -0.0030667276
s   8 1.0 
     8236.0000000000        -0.1210101098
     1235.0000000000        -0.2265691066
      280.8000000000        -0.3857532897
       79.2700000000        -0.5967016836
       25.5900000000        -0.7858351262
        8.9970000000        -0.8165330321
        3.3190000000        -0.5188700868
        0.3643000000         0.3477346660
s   1 1.0 
        0.9059000000         0.6617901318
s   1 1.0 
        0.1285000000         0.1529633682
p   3 1.0 
       18.7100000000         2.1868515589
        4.1330000000         2.0503123413
        1.2000000000         1.4599445297
p   1 1.0 
        0.3827000000         0.4290551959
p   1 1.0 
        0.1209000000         0.1016185431
d   1 1.0 
        1.0970000000         3.3522135855
d   1 1.0 
        0.3180000000         0.3838994974
f   1 1.0 
        0.7610000000         3.0840084332

  3 0
s   8 1.0 
     8236.0000000000         0.3342267437
     1235.0000000000         0.6230746416
      280.8000000000         1.0531059072
       79.2700000000         1.5831631342
       25.5900000000         1.9450988312
        8.9970000000         1.6429469100
        3.3190000000         0.6196591261
        0.3643000000        -0.0030667276
s   8 1.0 
     8236.0000000000        -0.1210101098
     1235.0000000000        -0.2265691066
      280.8000000000        -0.3857532897
       79.2700000000        -0.5967016836
       25.5900000000        -0.7858351262
        8.9970000000        -0.8165330321
        3.3190000000        -0.5188700868
        0.3643000000         0.3477346660
s   1 1.0 
        0.9059000000         0.6617901318
s   1 1.0 
        0.1285000000         0.1529633682
p   3 1.0 
       18.7100000000         2.1868515589
        4.1330000000         2.0503123413
        1.2000000000         1.4599445297
p   1 1.0 
        0.3827000000         0.4290551959
p   1 1.0 
        0.1209000000         0.1016185431
d   1 1.0 
        1.0970000000         3.3522135855
d   1 1.0 
        0.3180000000         0.3838994974
f   1 1.0 
        0.7610000000         3.0840084332

  4 0
s  13 1.0 
   374100.0000000000         0.5844191251
    56050.0000000000         1.0925375970
    12760.0000000000         1.8882460744
     3615.0000000000         3.0541532947
     1183.0000000000         4.6161738673
      428.8000000000         6.3572288857
      167.8000000000         7.4301266800
       69.4700000000         6.4201900098
       29.8400000000         2.9943994930
       12.7200000000         0.4065747605
        5.2440000000         0.0010887070
        2.2190000000         0.0021355931
        0.3490000000         0.0000974987
s  13 1.0 
   374100.0000000000        -0.1701104440
    56050.0000000000        -0.3176884996
    12760.0000000000        -0.5510798589
     3615.0000000000        -0.8935569365
     1183.0000000000        -1.3757326288
      428.8000000000        -1.9593522813
      167.8000000000        -2.5194726900
       69.4700000000        -2.6446965973
       29.8400000000        -1.8699879048
       12.7200000000         0.0414116652
        5.2440000000         1.3436104798
        2.2190000000         0.7398283949
        0.3490000000        -0.0031287217
s  13 1.0 
   374100.0000000000         0.0735668552
    56050.0000000000         0.1372853730
    12760.0000000000         0.2384482604
     3615.0000000000         0.3862332765
     1183.0000000000         0.5966173777
      428.8000000000         0.8505677156
      167.8000000000         1.1063107580
       69.4700000000         1.1790290527
       29.8400000000         0.8744613282
       12.7200000000        -0.0272187340
        5.2440000000        -0.7922164092
        2.2190000000        -0.7760986499
        0.3490000000         0.3624840981
s   1 1.0 
        0.7767000000         0.5896578317
s   1 1.0 
        0.1322000000         0.1562549138
p   7 1.0 
      574.4000000000        10.0083681887
      135.8000000000        13.1304340558
       43.1900000000        14.4020848242
       15.8700000000        11.8502636269
        6.2080000000         6.2476933447
        2.4830000000         1.6253545143
        0.3229000000        -0.0017986205
p   7 1.0 
      574.4000000000        -4.2649065184
      135.8000000000        -5.5998482197
       43.1900000000        -6.3002068274
       15.8700000000        -5.3084005917
        6.2080000000        -2.9694448650
        2.4830000000        -0.7390887814
        0.3229000000         0.3389817270
p   1 1.0 
        0.8688000000         1.1956108656
p   1 1.0 
        0.1098000000         0.0900934075
d   1 1.0 
        0.2690000000         0.2864419183
d   1 1.0 
        0.8190000000         2.0100965197
f   1 1.0 
        0.5570000000         1.5281791442

  5 0
s   3 1.0 
       33.8700000000         0.2551080577
        5.0950000000         0.4600978881
        1.1590000000         0.6784140671
s   1 1.0 
        0.3258000000         0.3073430538
s   1 1.0 
        0.1027000000         0.1292968442
p   1 1.0 
        1.4070000000         2.1842769845
p   1 1.0 
        0.3880000000         0.4364954740
d   1 1.0 
        1.0570000000         3.1412413909

  6 0
s   3 1.0 
       33.8700000000         0.2551080577
        5.0950000000         0.4600978881
        1.1590000000         0.6784140671
s   1 1.0 
        0.3258000000         0.3073430538
s   1 1.0 
        0.1027000000         0.1292968442
p   1 1.0 
        1.4070000000         2.1842769845
p   1 1.0 
        0.3880000000         0.4364954740
d   1 1.0 
        1.0570000000         3.1412413909

  7 0
s   3 1.0 
       33.8700000000         0.2551080577
        5.0950000000         0.4600978881
        1.1590000000         0.6784140671
s   1 1.0 
        0.3258000000         0.3073430538
s   1 1.0 
        0.1027000000         0.1292968442
p   1 1.0 
        1.4070000000         2.1842769845
p   1 1.0 
        0.3880000000         0.4364954740
d   1 1.0 
        1.0570000000         3.1412413909

  8 0
s   3 1.0 
       33.8700000000         0.2551080577
        5.0950000000         0.4600978881
        1.1590000000         0.6784140671
s   1 1.0 
        0.3258000000         0.3073430538
s   1 1.0 
        0.1027000000         0.1292968442
p   1 1.0 
        1.4070000000         2.1842769845
p   1 1.0 
        0.3880000000         0.4364954740
d   1 1.0 
        1.0570000000         3.1412413909

  9 0
s   3 1.0 
       33.8700000000         0.2551080577
        5.0950000000         0.4600978881
        1.1590000000         0.6784140671
s   1 1.0 
        0.3258000000         0.3073430538
s   1 1.0 
        0.1027000000         0.1292968442
p   1 1.0 
        1.4070000000         2.1842769845
p   1 1.0 
        0.3880000000         0.4364954740
d   1 1.0 
        1.0570000000         3.1412413909

 10 0
s   3 1.0 
       33.8700000000         0.2551080577
        5.0950000000         0.4600978881
        1.1590000000         0.6784140671
s   1 1.0 
        0.3258000000         0.3073430538
s   1 1.0 
        0.1027000000         0.1292968442
p   1 1.0 
        1.4070000000         2.1842769845
p   1 1.0 
        0.3880000000         0.4364954740
d   1 1.0 
        1.0570000000         3.1412413909

 11 0
s   3 1.0 
       33.8700000000         0.2551080577
        5.0950000000         0.4600978881
        1.1590000000         0.6784140671
s   1 1.0 
        0.3258000000         0.3073430538
s   1 1.0 
        0.1027000000         0.1292968442
p   1 1.0 
        1.4070000000         2.1842769845
p   1 1.0 
        0.3880000000         0.4364954740
d   1 1.0 
        1.0570000000         3.1412413909

 12 0
s   3 1.0 
       33.8700000000         0.2551080577
        5.0950000000         0.4600978881
        1.1590000000         0.6784140671
s   1 1.0 
        0.3258000000         0.3073430538
s   1 1.0 
        0.1027000000         0.1292968442
p   1 1.0 
        1.4070000000         2.1842769845
p   1 1.0 
        0.3880000000         0.4364954740
d   1 1.0 
        1.0570000000         3.1412413909

[5D]
[7F]
[9G]
[MO]
 Sym=     1a
 Ene= -8.88770922320240E+01
 Spin= Alpha
 Occup= 2.000000
  1       0.000016265609
  2       0.000035508238
  3      -0.000005153849
  4       0.000198444461
  5      -0.000004036276
  6      -0.000013402990
  7      -0.000004664965
  8       0.000145582869
  9       0.000126109741
 10      -0.000011340612
 11       0.000231624614
 12       0.000026272280
 13      -0.000337219479
 14      -0.000012732647
 15       0.000001201913
 16      -0.000011341096
 17      -0.000011781337
 18       0.000007216504
 19       0.000135322186
 20       0.000062486581
 21      -0.000101938229
 22       0.000026612182
 23      -0.000026145502
 24      -0.000021854438
 25       0.000000572073
 26      -0.000013842736
 27       0.000009388774
 28      -0.000017915593
 29       0.000010894714
 30       0.000003111070
 31      -0.000062534936
 32      -0.000115031809
 33      -0.000006519736
 34       0.000627399124
 35       0.000011533706
 36       0.000008652162
 37       0.000014552783
 38      -0.000024041955
 39      -0.000169579120
 40      -0.000013722688
 41       0.000391783853
 42      -0.000326208767
 43      -0.000082539489
 44      -0.000022493941
 45      -0.000008080121
 46      -0.000005489369
 47      -0.000027041358
 48       0.000019828765
 49       0.000232835926
 50      -0.000073480722
 51      -0.000083751830
 52       0.000048810431
 53      -0.000070404329
 54       0.000006027824
 55       0.000020184341
 56      -0.000001772692
 57      -0.000023265945
 58      -0.000002569917
 59      -0.000004671444
 60      -0.000005352706
 61      -0.000049878599
 62      -0.000058377654
 63       0.000182770373
 64      -0.000145583973
 65       0.000112253604
 66      -0.000038000611
 67       0.000055470695
 68      -0.000440205309
 69       0.000164667185
 70      -0.000402618387
 71       0.000311284603
 72       0.000130394753
 73      -0.000310708063
 74      -0.000000691714
 75       0.000004163754
 76       0.000007914727
 77      -0.000004056509
 78       0.000003818699
 79       0.000295182062
 80      -0.000033015294
 81      -0.000007822598
 82      -0.000459703974
 83       0.000194756308
 84       0.000052994350
 85       0.000054971458
 86      -0.000014649005
 87      -0.000029065645
 88       0.000026013347
 89       0.000040740905
 90      -0.000053565268
 91       1.000896369651
 92       0.004643489517
 93       0.004277202707
 94      -0.004369138774
 95      -0.001247759492
 96      -0.000132440452
 97       0.000761841379
 98       0.000090638027
 99      -0.000191737716
100       0.001425476440
101       0.000187739194
102       0.000075042810
103      -0.000342142909
104      -0.000034972751
105       0.000501478874
106      -0.000254616079
107       0.000018170039
108      -0.000275875337
109       0.000242848452
110       0.000198369371
111      -0.000212457002
112       0.000409273487
113      -0.000119750996
114       0.000057305996
115       0.000054031918
116       0.000011536089
117       0.000016491842
118      -0.000041178014
119      -0.000002331308
120      -0.000114713425
121      -0.000149542082
122       0.000139377767
123       0.000263781413
124      -0.000013601673
125      -0.000020511099
126       0.000153667320
127       0.000226474195
128      -0.000004489858
129      -0.000001472320
130       0.000003356933
131       0.000024509268
132      -0.000002509223
133      -0.000056153748
134      -0.000001444578
135      -0.000007809298
136       0.000006456329
137      -0.000003951769
138       0.000002693196
139       0.000028721405
140      -0.000242120525
141      -0.000148513729
142       0.000012468629
143      -0.000002939810
144      -0.000017009748
145      -0.000009148535
146       0.000147789211
147       0.000064451774
148       0.000011418338
149      -0.000004250306
150       0.000000145523
151       0.000021388459
152      -0.000007477246
153       0.000017131607
154      -0.000293386931
155       0.000114203409
156       0.000005997419
157      -0.000011499180
158       0.000009937061
159       0.000058188105
160      -0.000030566040
161       0.000013807263
162       0.000011526485
163      -0.000000773585
164      -0.000001761766
165      -0.000000275836
166       0.000008192857
167      -0.000036576111
168       0.000116378947
169       0.000178768092
170      -0.000009993409
171       0.000006039205
172       0.000006207754
173       0.000061989600
174      -0.000020183412
175       0.000035189866
176      -0.000006667759
177       0.000004100303
178      -0.000003466845
179       0.000013716829
180      -0.000004994945
181       0.000045679790
182      -0.000313460913
183      -0.000097405862
184       0.000009435447
185      -0.000013701521
186       0.000002020945
187      -0.000091767169
188      -0.000108648281
189      -0.000044869543
190       0.000011248749
191       0.000001322812
192      -0.000006409425
193       0.000020910964
194      -0.000017249748
195      -0.000011212514
196      -0.000304476199
197       0.000022591790
198      -0.000004870087
199       0.000004862833
200      -0.000009061221
201      -0.000063463778
202      -0.000124540294
203      -0.000030087756
204      -0.000011431216
205       0.000003533285
206       0.000004808561
207       0.000034532436
208      -0.000025911791
209      -0.000014209250
210      -0.000348074775
211       0.000012785270
212      -0.000008931076
213       0.000008019255
214      -0.000008925278
215       0.000090638887
216       0.000101570600
217       0.000031210564
218      -0.000014349858
219       0.000016375723
220      -0.000024606204
221       0.000035127454
222      -0.000029881515
223       0.000086432239
224      -0.001427100116
225       0.000108266264
226       0.000049240296
227       0.000062526816
228       0.000023618368
229       0.000328764308
230       0.000878359437
231       0.000243087473
232       0.000092724979
233      -0.000043138551
234      -0.000090224783
235       0.000124274829
236      -0.000142307488
 Sym=     1a
 Ene= -1.01995549385705E+01
 Spin= Alpha
 Occup= 2.000000
  1       0.000003642241
  2       0.000040812807
  3       0.000046458044
  4      -0.002973962457
  5       0.000023723702
  6      -0.000038454775
  7      -0.000005330381
  8       0.000212611713
  9       0.000427247274
 10      -0.000568580985
 11      -0.000533095514
 12      -0.000013927223
 13       0.000795860561
 14       0.000051929712
 15      -0.000048873499
 16       0.000001034723
 17      -0.000053505886
 18       0.000008980660
 19      -0.000303049175
 20       0.000655784225
 21      -0.000187725671
 22       0.000039761388
 23       0.000538734877
 24       0.000079842814
 25      -0.000096719322
 26       0.000022695844
 27      -0.000068279563
 28      -0.000072344245
 29      -0.000039950598
 30      -0.000009557057
 31       0.003460842024
 32       0.000590925452
 33       0.000362237063
 34      -0.000272600545
 35       0.000205312761
 36      -0.000002618314
 37      -0.000121325455
 38       0.000172682644
 39      -0.000387722755
 40      -0.000404094957
 41      -0.001271880688
 42       0.000863586679
 43       0.000424200171
 44      -0.000033663027
 45      -0.000151891812
 46       0.000033514140
 47      -0.000007423181
 48      -0.000012068318
 49       0.000366412428
 50       0.001434923052
 51      -0.000340905857
 52      -0.000381676606
 53       0.000009400266
 54      -0.000149377276
 55      -0.000476704629
 56       0.000168229322
 57       0.000412782606
 58       0.000046388858
 59       0.000231851087
 60      -0.000137716200
 61       0.979651263303
 62       0.012846234520
 63       0.051369260427
 64       0.021784428145
 65       0.000696627353
 66      -0.000271986693
 67       0.000361697317
 68      -0.004122944442
 69       0.002343510732
 70      -0.011981866687
 71      -0.001916625758
 72       0.001430707518
 73      -0.002756136939
 74      -0.000031847079
 75       0.000375716421
 76       0.000269064568
 77      -0.001180786667
 78       0.000741558151
 79       0.000993751753
 80       0.001197681105
 81       0.000551295032
 82      -0.005074758882
 83       0.002529852886
 84       0.000877067886
 85      -0.000411029754
 86      -0.000786833266
 87       0.001332785776
 88      -0.000884438786
 89      -0.000029239211
 90       0.000604336905
 91       0.000129431660
 92       0.000833995446
 93       0.001094304761
 94      -0.000440568963
 95       0.000243785455
 96      -0.000678063930
 97       0.000285399464
 98      -0.000250609178
 99      -0.001546493424
100       0.000616896745
101      -0.000535709534
102       0.000010089034
103      -0.000083264919
104       0.000077697543
105      -0.000266871120
106       0.000010982126
107      -0.000057493832
108      -0.000273030129
109       0.000566968647
110      -0.000199297464
111       0.000438967090
112      -0.000633138732
113      -0.000160633254
114       0.000082152011
115      -0.000008695998
116       0.000255817079
117      -0.000044893829
118       0.000144869654
119      -0.000050699464
120      -0.000051338197
121      -0.000078883192
122       0.000060203805
123       0.000010248137
124       0.000009330423
125      -0.000037309888
126       0.001304653571
127      -0.000337095468
128      -0.000008759685
129      -0.000027678752
130      -0.000012184298
131       0.000462557342
132       0.000067172108
133      -0.000256246320
134       0.000010441051
135      -0.000038142024
136       0.000007490640
137      -0.000009750933
138      -0.000021801241
139       0.000015802462
140      -0.000149847667
141       0.000634162030
142       0.000000484424
143      -0.000015420960
144      -0.000065169417
145       0.000004091326
146       0.000289452778
147       0.000027124074
148       0.000006784465
149      -0.000033056795
150       0.000015633042
151       0.000066530583
152      -0.000017918295
153      -0.000053221757
154       0.000666041050
155       0.000422666647
156      -0.000043532311
157       0.000007810936
158       0.000006300692
159      -0.000103363273
160      -0.000026573653
161      -0.000257587048
162       0.000008704895
163      -0.000003107099
164      -0.000000614547
165       0.000034526856
166      -0.000031381674
167      -0.000037630927
168      -0.001244189791
169      -0.000876458715
170      -0.000092007211
171       0.000028853157
172       0.000048266912
173      -0.000370546131
174       0.000057536795
175       0.000738211359
176       0.000143661702
177       0.000136145437
178      -0.000088473621
179       0.000007048823
180      -0.000011610584
181       0.000114269465
182      -0.000709094490
183       0.000149085194
184      -0.000042342936
185       0.000029559481
186       0.000003925893
187      -0.000442485863
188      -0.000177444716
189       0.000489517291
190      -0.000100121316
191       0.000105959866
192       0.000080665923
193      -0.000069477269
194      -0.000126567655
195      -0.000049132728
196      -0.017128032247
197      -0.003637965552
198      -0.000547930859
199      -0.000964340668
200      -0.001082217317
201      -0.002560903595
202      -0.005339904248
203      -0.005668690518
204      -0.000492637276
205      -0.000783532426
206      -0.001477281852
207       0.000575823126
208      -0.000709190441
209       0.000202032162
210      -0.015984563077
211      -0.004050877418
212       0.000126545053
213       0.001262629708
214      -0.000572769697
215       0.001037587854
216       0.006869205789
217      -0.003357017297
218       0.000366602745
219       0.000139731687
220       0.001275540365
221       0.001372291772
222      -0.000364330903
223       0.000119476439
224      -0.000272225819
225       0.000269556524
226      -0.000045560946
227       0.000003490818
228       0.000025458217
229       0.000391962452
230      -0.000054200372
231       0.000029821669
232       0.000047159421
233      -0.000077451047
234      -0.000020729561
235      -0.000122571834
236      -0.000052823356
 Sym=     1a
 Ene= -1.01764640380300E+01
 Spin= Alpha
 Occup= 2.000000
  1      -0.006741581008
  2      -0.000734836088
  3      -0.000801443160
  4       0.002317573884
  5       0.000076599487
  6       0.000184460247
  7       0.000258593694
  8      -0.000180263500
  9      -0.000309721090
 10       0.000294487815
 11       0.000207578387
 12      -0.000597758962
 13      -0.001096194426
 14      -0.000025159618
 15       0.000044284452
 16       0.000054516365
 17       0.000014861918
 18       0.000044567628
 19       0.001554722214
 20       0.000232732626
 21       0.001283200302
 22      -0.000258167603
 23      -0.000356924655
 24      -0.000098535426
 25      -0.000327642846
 26      -0.000769461335
 27       0.000225574450
 28      -0.000266579782
 29      -0.000303355244
 30      -0.000168070974
 31      -0.980075697098
 32      -0.013675861750
 33      -0.050984954159
 34      -0.023535782277
 35      -0.000333668573
 36      -0.000196600106
 37       0.000070698039
 38       0.009720191068
 39       0.004666949009
 40       0.000766813763
 41       0.001716073221
 42       0.000901281425
 43      -0.000136414926
 44       0.000350732232
 45      -0.000807154730
 46       0.001044496212
 47       0.000403624745
 48       0.000430692455
 49       0.002967833727
 50      -0.003036856112
 51       0.003742208181
 52       0.001133787254
 53       0.000911172095
 54      -0.000083085298
 55      -0.000015912160
 56      -0.000497870438
 57       0.001500926110
 58      -0.001075957341
 59       0.000201268436
 60       0.001390309213
 61       0.002955344834
 62      -0.000586432083
 63       0.000037029881
 64       0.000684453012
 65       0.000097765287
 66      -0.000034668761
 67      -0.000175659884
 68       0.000663266771
 69      -0.000051108065
 70      -0.000735516879
 71       0.000168798902
 72       0.000365283439
 73       0.000526901241
 74      -0.000056736480
 75       0.000102280954
 76       0.000000047843
 77       0.000016890130
 78       0.000069193247
 79       0.001236347873
 80      -0.000796629065
 81      -0.000002491591
 82      -0.000431252180
 83      -0.000471584931
 84      -0.000074707090
 85      -0.000482334656
 86       0.000020991693
 87       0.000372418278
 88       0.000000529631
 89       0.000265817776
 90      -0.000213708743
 91      -0.000014320473
 92      -0.000102509861
 93      -0.000153833140
 94      -0.000098329419
 95       0.001095467260
 96      -0.000237675363
 97       0.000171136705
 98       0.000103797729
 99      -0.000458824541
100       0.000353009080
101       0.000189608647
102       0.000172419254
103      -0.000081928529
104      -0.000109744244
105      -0.000391378439
106       0.000242636082
107       0.000098533849
108      -0.000350525233
109      -0.000256628684
110       0.000033145097
111       0.000225282816
112      -0.000170641566
113       0.000030048317
114       0.000076647624
115      -0.000001504052
116      -0.000047365932
117      -0.000003421375
118      -0.000061949897
119       0.000079305102
120      -0.000056605177
121       0.000096166855
122       0.000013139429
123       0.000044522035
124      -0.000034080675
125      -0.000144555582
126       0.000151209008
127       0.000524158367
128      -0.000049638369
129       0.000017986428
130       0.000008977054
131      -0.000673813887
132      -0.000639458042
133      -0.000654349277
134       0.000162345820
135       0.000014659222
136       0.000172123012
137      -0.000147663291
138      -0.000018496991
139      -0.000085453317
140       0.001597668585
141      -0.000043328087
142       0.000036675518
143      -0.000018703146
144      -0.000016506259
145      -0.000279641815
146      -0.000781031493
147      -0.000346720452
148      -0.000094347983
149       0.000110155957
150       0.000138630793
151      -0.000069322864
152       0.000057781205
153      -0.000115309554
154       0.000690647061
155      -0.000198541502
156       0.000020439217
157      -0.000039453427
158      -0.000026811354
159      -0.000086812853
160      -0.000424603832
161      -0.000697009838
162       0.000149679070
163       0.000140828550
164       0.000042850168
165       0.000002695137
166       0.000165075409
167      -0.000138433645
168       0.016887315592
169       0.003656927843
170       0.001159076197
171      -0.000596069067
172       0.000772503925
173       0.006518549455
174      -0.003018868539
175       0.004008176233
176      -0.000352945752
177       0.001385831195
178      -0.000716898168
179       0.000811324195
180      -0.001022698076
181      -0.000228457547
182       0.015843426747
183       0.003574460424
184       0.000172318766
185       0.001303657569
186      -0.000548257955
187       0.001226577560
188       0.007050953570
189      -0.002914222382
190      -0.000636165914
191      -0.000131274640
192      -0.001233032944
193      -0.001384639598
194       0.000441643773
195      -0.000093924673
196       0.000471504741
197       0.000350167529
198      -0.000045998759
199      -0.000010767858
200       0.000032332347
201      -0.001053141601
202      -0.000257018250
203       0.000552089286
204       0.000161795147
205      -0.000195407435
206       0.000030021349
207       0.000019104642
208      -0.000201558329
209      -0.000142651327
210       0.000392105017
211      -0.000195256464
212       0.000009848964
213       0.000026045232
214       0.000000629810
215      -0.000490654252
216       0.000240469644
217       0.000639008506
218       0.000095745315
219      -0.000128601598
220      -0.000102873487
221       0.000164470185
222       0.000080443209
223       0.000047355900
224      -0.000290781093
225      -0.000208861535
226      -0.000026312954
227       0.000002608424
228       0.000008001088
229       0.000186027687
230       0.000074097671
231       0.000042556491
232       0.000012012785
233       0.000000595888
234      -0.000018886343
235      -0.000009198345
236      -0.000009183822
 Sym=     1a
 Ene= -1.01607149122627E+01
 Spin= Alpha
 Occup= 2.000000
  1      -0.980989367645
  2      -0.015653749722
  3      -0.050833740785
  4      -0.027287228436
  5       0.000127781070
  6       0.000069322492
  7       0.000096592217
  8      -0.000209489223
  9      -0.002973215200
 10      -0.006488346072
 11      -0.000085131575
 12       0.000303790592
 13      -0.000234594240
 14       0.000242333591
 15       0.000534111978
 16       0.000625055438
 17      -0.000239613821
 18       0.000390244571
 19       0.000750677860
 20       0.001299842988
 21       0.001697171631
 22      -0.000929154811
 23       0.000837635798
 24       0.000486097778
 25       0.000584841847
 26       0.000479847965
 27      -0.001678360800
 28       0.001449717736
 29      -0.000992274918
 30      -0.000685317461
 31       0.006281315208
 32      -0.000455501385
 33      -0.000166158202
 34       0.002203070302
 35      -0.000117094703
 36      -0.000232949314
 37      -0.000250619021
 38       0.000732230308
 39       0.000413037298
 40       0.000233269526
 41      -0.000223974705
 42       0.001465500495
 43       0.002346467694
 44      -0.000015646169
 45       0.000021826026
 46       0.000000635334
 47      -0.000000485441
 48       0.000060305453
 49       0.001025436094
 50       0.000416665705
 51       0.001926980881
 52      -0.000289307197
 53       0.000390698338
 54       0.000043216336
 55       0.000175466014
 56       0.000831287379
 57      -0.000246142092