[Molden Format]
[Title]
 Molden file created by orca_2mkl for BaseName=orca

[Atoms] AU
C    1   6         29.5481232374        28.5403654383        29.6854763544 
C    2   6         28.8628689520        31.1015122988        29.1593130362 
N    3   7         28.5811539145        33.1343333620        28.4022900400 
H    4   1         31.4600380771        28.5758763334        30.5278128767 
H    5   1         28.3153769355        27.7061184662        30.9061958989 
H    6   1         29.7475094740        27.4568646919        27.8339823842 
[GTO]
  1 0
s   8 1.0 
     8236.0000000000         0.3342267437
     1235.0000000000         0.6230746416
      280.8000000000         1.0531059072
       79.2700000000         1.5831631342
       25.5900000000         1.9450988312
        8.9970000000         1.6429469100
        3.3190000000         0.6196591261
        0.3643000000        -0.0030667276
s   8 1.0 
     8236.0000000000        -0.1210101098
     1235.0000000000        -0.2265691066
      280.8000000000        -0.3857532897
       79.2700000000        -0.5967016836
       25.5900000000        -0.7858351262
        8.9970000000        -0.8165330321
        3.3190000000        -0.5188700868
        0.3643000000         0.3477346660
s   1 1.0 
        0.9059000000         0.6617901318
s   1 1.0 
        0.1285000000         0.1529633682
p   3 1.0 
       18.7100000000         2.1868515589
        4.1330000000         2.0503123413
        1.2000000000         1.4599445297
p   1 1.0 
        0.3827000000         0.4290551959
p   1 1.0 
        0.1209000000         0.1016185431
d   1 1.0 
        1.0970000000         3.3522135855
d   1 1.0 
        0.3180000000         0.3838994974
f   1 1.0 
        0.7610000000         3.0840084332

  2 0
s   8 1.0 
     8236.0000000000         0.3342267437
     1235.0000000000         0.6230746416
      280.8000000000         1.0531059072
       79.2700000000         1.5831631342
       25.5900000000         1.9450988312
        8.9970000000         1.6429469100
        3.3190000000         0.6196591261
        0.3643000000        -0.0030667276
s   8 1.0 
     8236.0000000000        -0.1210101098
     1235.0000000000        -0.2265691066
      280.8000000000        -0.3857532897
       79.2700000000        -0.5967016836
       25.5900000000        -0.7858351262
        8.9970000000        -0.8165330321
        3.3190000000        -0.5188700868
        0.3643000000         0.3477346660
s   1 1.0 
        0.9059000000         0.6617901318
s   1 1.0 
        0.1285000000         0.1529633682
p   3 1.0 
       18.7100000000         2.1868515589
        4.1330000000         2.0503123413
        1.2000000000         1.4599445297
p   1 1.0 
        0.3827000000         0.4290551959
p   1 1.0 
        0.1209000000         0.1016185431
d   1 1.0 
        1.0970000000         3.3522135855
d   1 1.0 
        0.3180000000         0.3838994974
f   1 1.0 
        0.7610000000         3.0840084332

  3 0
s   8 1.0 
    11420.0000000000         0.4212093071
     1712.0000000000         0.7848615221
      389.3000000000         1.3273975977
      110.0000000000         1.9989872282
       35.5700000000         2.4748758656
       12.5400000000         2.1060076679
        4.6440000000         0.8013747684
        0.5118000000        -0.0037531799
s   8 1.0 
    11420.0000000000        -0.1565041181
     1712.0000000000        -0.2934466844
      389.3000000000        -0.4992401207
      110.0000000000        -0.7752671946
       35.5700000000        -1.0288246585
       12.5400000000        -1.0842399649
        4.6440000000        -0.6722979466
        0.5118000000         0.4472128530
s   1 1.0 
        1.2930000000         0.8641895012
s   1 1.0 
        0.1787000000         0.1958860490
p   3 1.0 
       26.6300000000         3.4325416128
        5.9480000000         3.2969151869
        1.7420000000         2.3120245012
p   1 1.0 
        0.5550000000         0.6828201314
p   1 1.0 
        0.1725000000         0.1584624850
d   1 1.0 
        1.6540000000         6.8771297418
d   1 1.0 
        0.4690000000         0.7577440909
f   1 1.0 
        1.0930000000         6.9645882147

  4 0
s   3 1.0 
       33.8700000000         0.2551080577
        5.0950000000         0.4600978881
        1.1590000000         0.6784140671
s   1 1.0 
        0.3258000000         0.3073430538
s   1 1.0 
        0.1027000000         0.1292968442
p   1 1.0 
        1.4070000000         2.1842769845
p   1 1.0 
        0.3880000000         0.4364954740
d   1 1.0 
        1.0570000000         3.1412413909

  5 0
s   3 1.0 
       33.8700000000         0.2551080577
        5.0950000000         0.4600978881
        1.1590000000         0.6784140671
s   1 1.0 
        0.3258000000         0.3073430538
s   1 1.0 
        0.1027000000         0.1292968442
p   1 1.0 
        1.4070000000         2.1842769845
p   1 1.0 
        0.3880000000         0.4364954740
d   1 1.0 
        1.0570000000         3.1412413909

  6 0
s   3 1.0 
       33.8700000000         0.2551080577
        5.0950000000         0.4600978881
        1.1590000000         0.6784140671
s   1 1.0 
        0.3258000000         0.3073430538
s   1 1.0 
        0.1027000000         0.1292968442
p   1 1.0 
        1.4070000000         2.1842769845
p   1 1.0 
        0.3880000000         0.4364954740
d   1 1.0 
        1.0570000000         3.1412413909

[5D]
[7F]
[9G]
[MO]
 Sym=     1a
 Ene= -1.43136330949381E+01
 Spin= Alpha
 Occup= 2.000000
  1      -0.001125622406
  2      -0.002226575269
  3       0.000545878421
  4      -0.002075972163
  5      -0.000051019537
  6       0.000088808638
  7       0.000012750032
  8       0.001509505569
  9      -0.004311835589
 10       0.000503571459
 11       0.000285700031
 12      -0.000931122629
 13       0.000009952927
 14       0.000416008552
 15      -0.000051444455
 16       0.000154571829
 17       0.000584129817
 18       0.000450752049
 19       0.001007669363
 20      -0.000155749326
 21       0.000784047117
 22       0.001502593596
 23       0.000760623316
 24      -0.000014731823
 25      -0.000150226670
 26       0.000408586305
 27      -0.000005508374
 28      -0.000062402914
 29       0.000531453057
 30      -0.000249439318
 31      -0.002157927259
 32      -0.004390931285
 33       0.000676729434
 34      -0.006760275377
 35      -0.000183553444
 36       0.000989565972
 37      -0.000316882508
 38       0.002353709173
 39      -0.013050696933
 40       0.004209484581
 41       0.000465270087
 42      -0.003372016826
 43       0.001287502571
 44       0.000379252614
 45      -0.000096394781
 46       0.000771909017
 47       0.000941137563
 48       0.000216094235
 49       0.000717680596
 50      -0.000195201852
 51       0.001728953551
 52       0.001967694975
 53       0.000339154604
 54      -0.001243725812
 55      -0.000147819820
 56       0.000877648462
 57      -0.001637945086
 58      -0.000554453958
 59       0.000983916606
 60      -0.001855960934
 61       0.974636727570
 62       0.003088439773
 63       0.051616765556
 64       0.014236985713
 65       0.000213024317
 66      -0.001685684733
 67       0.000662814331
 68       0.000742075954
 69      -0.005909270836
 70       0.002283493136
 71       0.000522426510
 72      -0.003547723369
 73       0.001258076517
 74      -0.000384391780
 75       0.000090469489
 76      -0.000733189297
 77      -0.000926334266
 78      -0.000237930513
 79      -0.000499938572
 80       0.000116286902
 81      -0.001000389200
 82      -0.001233135753
 83      -0.000269226364
 84      -0.000223000347
 85      -0.000004904667
 86       0.000069686939
 87      -0.000325029112
 88      -0.000060957009
 89       0.000082980951
 90      -0.000302899842
 91       0.000072306528
 92      -0.000747745945
 93       0.000194188004
 94      -0.000043281405
 95       0.000002428125
 96      -0.000025052162
 97       0.000279078361
 98       0.000159342218
 99       0.000126129157
100      -0.000010989109
101      -0.000007305744
102      -0.000041963919
103      -0.000043734679
104      -0.000029608092
105      -0.000008731371
106      -0.000196396105
107       0.000132228427
108       0.000019306416
109      -0.000032518655
110      -0.000018500571
111      -0.000006991832
112       0.000033941160
113      -0.000022686716
114      -0.000045876902
115      -0.000032993394
116      -0.000005589891
117      -0.000025800125
118      -0.000085967741
119       0.000083448288
120      -0.001033057840
121       0.000109896641
122      -0.000012322348
123       0.000042681334
124       0.000035290381
125      -0.000022961071
126      -0.000113733727
127      -0.000465895325
128      -0.000084410636
129      -0.000027349536
130       0.000001744600
131      -0.000039945635
132      -0.000013243260
 Sym=     1a
 Ene= -1.02227247058983E+01
 Spin= Alpha
 Occup= 2.000000
  1      -0.981266261902
  2      -0.016809205591
  3      -0.050740481781
  4      -0.030753149007
  5       0.000248828348
  6      -0.000481778779
  7      -0.000020775191
  8       0.001245487243
  9       0.001484444894
 10      -0.003267079709
 11       0.000847572721
 12      -0.002513115080
 13      -0.000373516478
 14       0.000022921374
 15       0.000449624462
 16       0.000410143903
 17      -0.000166011680
 18      -0.000292074599
 19       0.000105290073
 20       0.000865855357
 21       0.000563839118
 22      -0.000561014581
 23      -0.000458053479
 24       0.000844784411
 25       0.000317147187
 26       0.001394471953
 27      -0.001521229953
 28      -0.001084500185
 29       0.001065451136
 30      -0.000702742834
 31      -0.022715491171
 32      -0.000839085402
 33      -0.002378605612
 34       0.010208403280
 35      -0.000216717887
 36       0.000752927718
 37      -0.000128815699
 38       0.002048862748
 39      -0.008384539186
 40       0.001952693067
 41       0.001474282429
 42      -0.006010868850
 43       0.001414884474
 44       0.000036658767
 45      -0.000032265190
 46       0.000110950286
 47       0.000124071852
 48       0.000006809335
 49      -0.000738267841
 50       0.000130913063
 51      -0.000708659158
 52      -0.001345582222
 53      -0.000654518362
 54      -0.000655170552
 55      -0.000246933742
 56       0.001130216044
 57      -0.000807509484
 58      -0.000487005502
 59       0.001183175358
 60      -0.001306977652
 61       0.000962017450
 62       0.001920188013
 63       0.000329255366
 64       0.004233639153
 65       0.000027244932
 66      -0.000115869687
 67       0.000028029685
 68       0.000073067389
 69      -0.002712007494
 70       0.001420977737
 71      -0.000039232674
 72      -0.000856096411
 73       0.000537261410
 74      -0.000044205392
 75       0.000009280281
 76      -0.000307535519
 77      -0.000258037704
 78       0.000023815419
 79      -0.000169515690
 80       0.000019424577
 81      -0.000958643678
 82      -0.000824956844
 83       0.000023330332
 84      -0.000165524239
 85       0.000024580607
 86      -0.000124517386
 87      -0.000290070296
 88       0.000024530051
 89      -0.000080210033
 90      -0.000165375820
 91      -0.000207901523
 92       0.009305916182
 93       0.002623002618
 94      -0.001092495293
 95       0.000007649574
 96      -0.000480189123
 97      -0.004193685767
 98      -0.000225897419
 99      -0.001825592627
100      -0.000392885719
101       0.001002839064
102       0.000050071945
103       0.001179639546
104       0.000042052991
105       0.000456888139
106       0.014237368995
107       0.003295028250
108       0.001074789279
109       0.000772897821
110      -0.001101218714
111       0.004210937091
112       0.002793083717
113      -0.004132780652
114       0.000206178428
115      -0.001153285659
116      -0.000795132491
117       0.000318876256
118       0.000807486290
119      -0.000330447518
120       0.007133043646
121       0.002081947469
122      -0.000110315456
123       0.000504503419
124       0.000841296563
125      -0.000269737802
126       0.001703472834
127       0.003180226134
128       0.000910754882
129      -0.000221119642
130       0.001116593858
131      -0.000265005455
132      -0.000121197846
 Sym=     1a
 Ene= -1.02132097708387E+01
 Spin= Alpha
 Occup= 2.000000
  1      -0.022029835457
  2       0.001083589102
  3      -0.000625711095
  4      -0.001448683883
  5      -0.000085401428
  6       0.000516556059
  7      -0.000154431966
  8      -0.001036742551
  9       0.004074586879
 10      -0.001107606057
 11       0.000225215672
 12      -0.000984430172
 13       0.000329385951
 14      -0.000284535364
 15       0.000106863505
 16      -0.000069716639
 17      -0.000430574719
 18      -0.000324253181
 19       0.000035050757
 20      -0.000229460595
 21       0.001103731253
 22       0.000733633511
 23      -0.000509866525
 24      -0.000502889588
 25      -0.000062189462
 26       0.000450324118
 27      -0.000505545954
 28      -0.000360682936
 29       0.000493580252
 30      -0.000779513107
 31       0.976276336539
 32       0.007872918586
 33       0.054139693620
 34       0.010967965945
 35       0.000114811321
 36      -0.000535699032
 37       0.000156378990
 38      -0.001537990592
 39       0.013349069317
 40      -0.005316435006
 41      -0.000271055792
 42       0.003091918992
 43      -0.001400208433
 44      -0.001328310423
 45       0.000307205549
 46      -0.001992708891
 47      -0.002836861911
 48      -0.000952407314
 49       0.000490130530
 50      -0.000155625062
 51      -0.000135288374
 52       0.000470818800
 53       0.000521678472
 54       0.000882067679
 55       0.000034384561
 56      -0.000372327591
 57       0.001221644662
 58       0.000295859626
 59      -0.000413432342
 60       0.001207778922
 61      -0.003222775886
 62      -0.005038124155
 63       0.000966704491
 64      -0.016632923631
 65       0.000154909262
 66      -0.000826574767
 67       0.000259180102
 68      -0.001452288353
 69       0.008780180357
 70      -0.002987115615
 71      -0.001073694376
 72       0.006318421137
 73      -0.002055232224
 74       0.000218571579
 75      -0.000054913338
 76       0.000422052073
 77       0.000528624742
 78       0.000135244184
 79       0.001873840821
 80      -0.000456991792
 81       0.002729986680
 82       0.003929385463
 83       0.001338223575
 84       0.000491844753
 85       0.000044968373
 86      -0.000298302454
 87       0.000660076781
 88       0.000202022073
 89      -0.000337906463
 90       0.000708685006
 91      -0.000134083656
 92       0.001148711791
 93      -0.000197531709
 94      -0.000068765043
 95      -0.000220604971
 96      -0.000015936594
 97      -0.000723398494
 98      -0.000148780969
 99      -0.000112141165
100      -0.000134913943
101       0.000105237789
102       0.000025150136
103       0.000107132028
104       0.000200016251
105       0.000086814330
106       0.002227964167
107      -0.000118787129
108       0.000237977315
109      -0.000100803410
110      -0.000112524629
111       0.001088654181
112      -0.000140859708
113      -0.000720950383
114       0.000073171231
115      -0.000199717480
116       0.000025264844
117       0.000250990138
118       0.000092730856
119      -0.000123115068
120       0.000629776100
121      -0.000144357954
122       0.000055575637
123      -0.000126867976
124       0.000150142259
125      -0.000168909843
126       0.000086358701
127       0.000477022401
128       0.000282624250
129      -0.000010308347
130      -0.000014777244
131       0.000002014073
132       0.000009493952
 Sym=     1a
 Ene= -9.07707751152301E-01
 Spin= Alpha
 Occup= 2.000000
  1       0.008027651616
  2      -0.093687679732
  3      -0.024310165682
  4      -0.064401402403
  5       0.005054740129
  6      -0.021895100119
  7       0.004636710540
  8       0.003875798366
  9      -0.008627994396
 10      -0.001074307185
 11       0.004179627378
 12      -0.007561569188
 13      -0.001434168793
 14       0.000964164229
 15      -0.000081429558
 16       0.000961645461
 17       0.001621269438
 18       0.000675597913
 19      -0.002502558792
 20       0.002725227406
 21      -0.003181167548
 22      -0.006276171974
 23      -0.000833867613
 24       0.001403318404
 25       0.000113710567
 26       0.000679729081
 27      -0.000136972117
 28      -0.000214453661
 29       0.000490124384
 30       0.000586918389
 31       0.035670410720
 32      -0.324173443540
 33      -0.081418721690
 34      -0.068453050252
 35       0.011920147986
 36      -0.102163890847
 37       0.040720939303
 38       0.002610463412
 39      -0.064944710192
 40       0.031428224910
 41       0.007980035801
 42      -0.043528737830
 43       0.013758886141
 44       0.008067388705
 45      -0.001806246710
 46       0.012332039971
 47       0.017376984646
 48       0.005754728160
 49       0.004593165279
 50      -0.000864594799
 51       0.004795789353
 52       0.008313792846
 53       0.004298783806
 54      -0.002608922910
 55       0.000395656277
 56      -0.000274950539
 57      -0.003958955809
 58      -0.000562581732
 59      -0.000359416570
 60      -0.003102870095
 61       0.026244364152
 62      -0.380234190442
 63      -0.106836149552
 64      -0.106468994810
 65      -0.015661141566
 66       0.108702571296
 67      -0.039792077102
 68      -0.014568880340
 69       0.106958737732
 70      -0.040232213935
 71      -0.003118539452
 72       0.010865954487
 73      -0.002214283274
 74       0.003774337561
 75      -0.000876316046
 76       0.006952808469
 77       0.008907598301
 78       0.002358533985
 79       0.003166255396
 80      -0.000686709540
 81       0.006725988352
 82       0.008081680134
 83       0.001819575841
 84       0.001670979635
 85       0.000072448060
 86      -0.000506707038
 87       0.002424282440
 88       0.000424254726
 89      -0.000682278449
 90       0.002278093020
 91      -0.013032636624
 92      -0.005736212574
 93      -0.001161562977
 94       0.001152216421
 95      -0.000193888527
 96       0.000518917272
 97      -0.001311601463
 98      -0.002622262825
 99      -0.000603136667
100       0.000407763735
101      -0.000218379336
102       0.000421917894
103       0.000329908370
104       0.000533385429
105      -0.014092214938
106       0.000129018623
107       0.000553720927
108      -0.000730318245
109      -0.000808357294
110       0.000792225528
111       0.002717273230
112       0.001284054926
113      -0.001997858583
114       0.000149888655
115      -0.000093476007
116       0.000343688881
117       0.000512262657
118       0.000031527366
119      -0.011765470047
120      -0.005897894698
121      -0.001730768838
122       0.000105003503
123      -0.000647985600
124      -0.000858756282
125       0.000933769403
126      -0.001035244601
127       0.001891768834
128       0.000211338969
129       0.000081300307
130       0.000053020844
131       0.000606909748
132       0.000339826000
 Sym=     1a
 Ene= -7.85600331198816E-01
 Spin= Alpha
 Occup= 2.000000
  1      -0.029944188316
  2       0.406499125639
  3       0.097588296323
  4       0.159530520921
  5      -0.011532246841
  6       0.027453603917
  7       0.004335334664
  8      -0.009525635703
  9       0.033739672431
 10       0.000164659363
 11      -0.000142383471
 12       0.001225507853
 13       0.001457567937
 14      -0.002046200695
 15      -0.000489668638
 16      -0.001879540941
 17      -0.002986700509
 18      -0.001556768527
 19      -0.002758249273
 20       0.000554099077
 21      -0.003015188149
 22      -0.005347400931
 23      -0.002170366581
 24      -0.000282867330
 25       0.000331735700
 26      -0.004780443575
 27       0.004286623161
 28       0.002300441619
 29      -0.004066137904
 30       0.003225135966
 31      -0.004286311087
 32       0.091764527439
 33       0.022475106482
 34       0.030666030741
 35       0.028476411784
 36      -0.133121330605
 37       0.037602152904
 38       0.026973388252
 39      -0.123014177156
 40       0.034188683945
 41       0.005233165752
 42      -0.025625835236
 43       0.007488224496
 44      -0.001811744728
 45       0.000288446263
 46       0.000245702913
 47      -0.001882312716
 48      -0.002251680054
 49      -0.001634979927
 50       0.000364110252
 51      -0.003200947093
 52      -0.003833853657
 53      -0.000894688485
 54      -0.002260494830
 55      -0.000579023540
 56       0.002549048176
 57      -0.002645116179
 58      -0.001319858961
 59       0.002870248052
 60      -0.003651865738
 61       0.009204125945
 62      -0.152252023578
 63      -0.042603063839
 64      -0.065550567762
 65      -0.003082854708
 66       0.034948526940
 67      -0.015055591983
 68      -0.003807266526
 69       0.034762093147
 70      -0.014124624420
 71      -0.000974336009
 72       0.005779872583
 73      -0.001894731699
 74       0.001254906724
 75      -0.000283149909
 76       0.002628148962
 77       0.003181198602
 78       0.000699064279
 79       0.001895285650
 80      -0.000552457760
 81       0.002294392353
 82       0.003632890967
 83       0.001480951950
 84       0.000719887430
 85       0.000049713793
 86      -0.000442773610
 87       0.000953041732
 88       0.000326690201
 89      -0.000492887772
 90       0.001044596165
 91       0.070110996855
 92       0.069441264224
 93       0.006361731393
 94      -0.006401874307
 95       0.000768070505
 96      -0.002842196020
 97      -0.002916367843
 98       0.001392143491
 99      -0.001460339752
100      -0.000286756522
101       0.000951370527
102      -0.000200619002
103       0.000932597690
104      -0.000611234276
105       0.083119746781
106       0.077965857170
107       0.006463644824
108       0.005260752379
109       0.004794777101
110      -0.005560759132
111       0.000684675831
112       0.003290132090
113      -0.001679860128
114       0.000030074158
115      -0.001190668297
116      -0.001284830948
117      -0.000225889507
118       0.001050405494
119       0.062795017056
120       0.064141225266
121       0.006286669978
122      -0.000680742232
123       0.003542967253
124       0.004791991994
125      -0.000457205941
126       0.002867291398
127       0.002343287718
128       0.000116898908
129      -0.000141226137
130       0.001011338083
131      -0.000490959139
132      -0.000221625966
 Sym=     1a
 Ene= -5.21577884413141E-01
 Spin= Alpha
 Occup= 2.000000
  1      -0.005915611932
  2       0.097349523004
  3       0.026162910867
  4       0.122791730801
  5       0.026330972991
  6      -0.218246109413
  7       0.076196273079
  8       0.028224987925
  9      -0.227427868816
 10       0.078847781608
 11       0.006437607162
 12      -0.075534710619
 13       0.030361405694
 14       0.007346891079
 15      -0.003868165903
 16       0.003494845467
 17       0.012373593958
 18       0.007979647355
 19       0.005809236557
 20      -0.003724361036
 21       0.004882966824
 22       0.011223107279
 23       0.005048378794
 24      -0.001676611509
 25      -0.000430475016
 26       0.000936699959
 27      -0.000344744965
 28      -0.000580798737
 29       0.001517626085
 30      -0.002238945604
 31       0.010139574845
 32      -0.263603103193
 33      -0.065095959108
 34      -0.162729719441
 35      -0.039393684982
 36       0.141600735424
 37      -0.029824166666
 38      -0.048360326122
 39       0.172116789383
 40      -0.035800775514
 41      -0.019044431679
 42       0.077512454344
 43      -0.019793182141
 44       0.003375139180
 45      -0.000470512429
 46       0.001035533780
 47       0.004584224700
 48       0.003792573393
 49       0.003344147574
 50      -0.000676348195
 51       0.002546156003
 52       0.005627325332
 53       0.003651319564
 54       0.002652640945
 55       0.001286215079
 56      -0.004928013495
 57       0.002903924845
 58       0.001991609820
 59      -0.005500056180
 60       0.005143692388
 61      -0.005555402418
 62       0.138467028240
 63       0.039915711803
 64       0.076491048170
 65      -0.008852010536
 66       0.010980378220
 67       0.004224050185
 68      -0.010396338196
 69       0.021648552639
 70       0.000025886167
 71      -0.005533414682
 72       0.020060337363
 73      -0.004378439474
 74       0.000150746381
 75      -0.000081102743
 76      -0.000655896925
 77      -0.000277128750
 78       0.000390855239
 79       0.000999637185
 80      -0.000133527331
 81       0.002263537939
 82       0.002583281288
 83       0.000675479998
 84      -0.000166676656
 85       0.000007505028
 86       0.000297916275
 87      -0.000137011517
 88      -0.000211781367
 89       0.000218739691
 90      -0.000315972765
 91       0.058699333994
 92       0.075093849789
 93       0.026796054740
 94      -0.004883270914
 95      -0.004742488777
 96      -0.001022181071
 97      -0.004655554055
 98      -0.010803561934
 99       0.000689344825
100      -0.000525493456
101       0.000360813410
102       0.001136087011
103       0.001251007237
104       0.002589999476
105       0.111899049694
106       0.134722783843
107       0.043846231394
108       0.009189451205
109       0.000165999528
110      -0.006474108379
111       0.008873726181
112      -0.007309547308
113      -0.003108276165
114       0.000517616594
115      -0.002164231344
116       0.000721877301
117       0.002578481408
118       0.000228305410
119       0.054459049363
120       0.071175947554
121       0.026495102170
122       0.000165368879
123      -0.001285130905
124       0.006079475665
125       0.000885901164
126      -0.006818546526
127       0.008906337546
128       0.002787786395
129      -0.000013263153
130      -0.000146574219
131       0.001021592465
132       0.000422159572
 Sym=     1a
 Ene= -4.81841881446232E-01
 Spin= Alpha
 Occup= 2.000000
  1       0.000117431925
  2      -0.019460099371
  3      -0.004211395164
  4      -0.018962092847
  5      -0.208644510206
  6       0.002051867067
  7       0.135350640448
  8      -0.223589879133
  9       0.002596358271
 10       0.146038109641
 11      -0.101410172484
 12       0.001212424238
 13       0.067298650138
 14      -0.002533793131
 15      -0.008444545572
 16      -0.006061582402
 17      -0.001320756065
 18       0.000152050066
 19      -0.003063127425
 20      -0.004573440629
 21      -0.000561403061
 22       0.000377230752
 23      -0.004641865045
 24      -0.000363466487
 25       0.000903376632
 26      -0.000691419895
 27      -0.000965662661
 28      -0.000499229077
 29      -0.001880034674
 30      -0.001110386704
 31      -0.002435251344
 32       0.053873047506
 33       0.014121232170
 34       0.038085444174
 35      -0.074694604016
 36      -0.021080324359
 37       0.056857133246
 38      -0.094911926968
 39      -0.028060806476
 40       0.072717061105
 41      -0.031090777410
 42      -0.009174090024
 43       0.023735352684
 44       0.000042567684
 45       0.000493668044
 46      -0.003221253894
 47      -0.002813164273
 48       0.002834190643
 49       0.000726677522
 50      -0.000810991209
 51      -0.006202013738
 52      -0.004099274984
 53       0.006156874624
 54      -0.002255509703
 55       0.001290060998
 56      -0.001827933866
 57      -0.004139736667
 58       0.001173297148
 59      -0.004441241383
 60      -0.003411045098
 61       0.001209774943
 62      -0.015802860841
 63      -0.004451608997
 64      -0.012625726509
 65      -0.040343888747
 66       0.000871374272
 67       0.025465997689
 68      -0.045814972097
 69      -0.001361397202
 70       0.030131314382
 71      -0.024401488352
 72      -0.000535222412
 73       0.015997420157
 74       0.001088769682
 75      -0.000817632243
 76      -0.001771306025
 77      -0.000261248825
 78       0.002910399962
 79       0.001288463748
 80      -0.000646986416
 81      -0.002601260407
 82      -0.000840180049
 83       0.003699458112
 84      -0.000079012596
 85       0.000213007177
 86      -0.000395292099
 87      -0.000246136545
 88       0.000134898465
 89      -0.000650910039
 90      -0.000099501212
 91      -0.095043593403
 92      -0.137845315838
 93      -0.050487339527
 94       0.005782780035
 95      -0.000025180772
 96       0.007072672452
 97       0.004448027258
 98       0.000485644736
 99       0.012555205134
100      -0.000694922531
101      -0.002870759428
102      -0.000044076396
103      -0.000936635224
104      -0.000039734607
105       0.144344525977
106       0.189822493640
107       0.065356928470
108       0.005969989872
109       0.008611430803
110      -0.008053485722
111      -0.000152812157
112       0.009039435646
113      -0.003977215121
114       0.000097452074
115      -0.000848668945
116      -0.002132173220
117      -0.001133602489
118       0.001487872070
119      -0.091788080369
120      -0.135179631788
121      -0.048932826771
122      -0.002742625832
123      -0.005249852911
124      -0.006141053758
125      -0.008157761355
126      -0.007374466258
127      -0.007522464393
128      -0.001214262089
129      -0.001184826761
130      -0.002376372117
131       0.001017930497
132      -0.000648078474
 Sym=     1a
 Ene= -4.60616004052685E-01
 Spin= Alpha
 Occup= 2.000000
  1       0.000186751841
  2      -0.011425067233
  3      -0.002742712365
  4      -0.006228432164
  5       0.125286742388
  6       0.076941582403
  7       0.187130895030
  8       0.136909651829
  9       0.084585870981
 10       0.207106942330
 11       0.065013187236
 12       0.042056153166
 13       0.100321694309
 14      -0.007557537698
 15       0.004359611534
 16      -0.002118522433
 17       0.004795890857
 18       0.002831736251
 19      -0.007246004164
 20       0.000133212573
 21       0.003883645613
 22      -0.000125612808
 23       0.005206445004
 24      -0.000586019997
 25       0.000046393476
 26      -0.001350788540
 27      -0.001103500262
 28      -0.000804635849
 29       0.001014946606
 30       0.000965015030
 31      -0.000312536749
 32       0.005384308893
 33       0.001595828155
 34       0.003123411986
 35       0.058336822020
 36       0.036499754220