[Molden Format]
[Title]
 Molden file created by orca_2mkl for BaseName=orca

[Atoms] AU
C    1   6         27.4546969959        29.8589601046        31.1910907470 
C    2   6         29.8070848588        31.0807550456        31.3398460523 
C    3   6         31.5756172928        30.6420571730        29.4528299233 
C    4   6         31.2403526320        28.9265925599        27.5672556114 
C    5   6         28.9111308496        27.8042741936        27.3555207586 
C    6   6         27.1164868917        28.2136480100        29.1463881569 
H    7   1         26.2642997483        29.8960362241        32.8790227162 
H    8   1         30.2392650229        32.4863307240        32.8351682757 
H    9   1         33.3926693934        31.5186794402        29.7485137819 
H   10   1         32.7189629845        28.4736667319        26.2657295478 
H   11   1         28.4584533849        26.5917038966        25.7610813412 
H   12   1         25.3646402813        27.0509562328        29.0012134237 
[GTO]
  1 0
s   8 1.0 
     8236.0000000000         0.3342267437
     1235.0000000000         0.6230746416
      280.8000000000         1.0531059072
       79.2700000000         1.5831631342
       25.5900000000         1.9450988312
        8.9970000000         1.6429469100
        3.3190000000         0.6196591261
        0.3643000000        -0.0030667276
s   8 1.0 
     8236.0000000000        -0.1210101098
     1235.0000000000        -0.2265691066
      280.8000000000        -0.3857532897
       79.2700000000        -0.5967016836
       25.5900000000        -0.7858351262
        8.9970000000        -0.8165330321
        3.3190000000        -0.5188700868
        0.3643000000         0.3477346660
s   1 1.0 
        0.9059000000         0.6617901318
s   1 1.0 
        0.1285000000         0.1529633682
p   3 1.0 
       18.7100000000         2.1868515589
        4.1330000000         2.0503123413
        1.2000000000         1.4599445297
p   1 1.0 
        0.3827000000         0.4290551959
p   1 1.0 
        0.1209000000         0.1016185431
d   1 1.0 
        1.0970000000         3.3522135855
d   1 1.0 
        0.3180000000         0.3838994974
f   1 1.0 
        0.7610000000         3.0840084332

  2 0
s   8 1.0 
     8236.0000000000         0.3342267437
     1235.0000000000         0.6230746416
      280.8000000000         1.0531059072
       79.2700000000         1.5831631342
       25.5900000000         1.9450988312
        8.9970000000         1.6429469100
        3.3190000000         0.6196591261
        0.3643000000        -0.0030667276
s   8 1.0 
     8236.0000000000        -0.1210101098
     1235.0000000000        -0.2265691066
      280.8000000000        -0.3857532897
       79.2700000000        -0.5967016836
       25.5900000000        -0.7858351262
        8.9970000000        -0.8165330321
        3.3190000000        -0.5188700868
        0.3643000000         0.3477346660
s   1 1.0 
        0.9059000000         0.6617901318
s   1 1.0 
        0.1285000000         0.1529633682
p   3 1.0 
       18.7100000000         2.1868515589
        4.1330000000         2.0503123413
        1.2000000000         1.4599445297
p   1 1.0 
        0.3827000000         0.4290551959
p   1 1.0 
        0.1209000000         0.1016185431
d   1 1.0 
        1.0970000000         3.3522135855
d   1 1.0 
        0.3180000000         0.3838994974
f   1 1.0 
        0.7610000000         3.0840084332

  3 0
s   8 1.0 
     8236.0000000000         0.3342267437
     1235.0000000000         0.6230746416
      280.8000000000         1.0531059072
       79.2700000000         1.5831631342
       25.5900000000         1.9450988312
        8.9970000000         1.6429469100
        3.3190000000         0.6196591261
        0.3643000000        -0.0030667276
s   8 1.0 
     8236.0000000000        -0.1210101098
     1235.0000000000        -0.2265691066
      280.8000000000        -0.3857532897
       79.2700000000        -0.5967016836
       25.5900000000        -0.7858351262
        8.9970000000        -0.8165330321
        3.3190000000        -0.5188700868
        0.3643000000         0.3477346660
s   1 1.0 
        0.9059000000         0.6617901318
s   1 1.0 
        0.1285000000         0.1529633682
p   3 1.0 
       18.7100000000         2.1868515589
        4.1330000000         2.0503123413
        1.2000000000         1.4599445297
p   1 1.0 
        0.3827000000         0.4290551959
p   1 1.0 
        0.1209000000         0.1016185431
d   1 1.0 
        1.0970000000         3.3522135855
d   1 1.0 
        0.3180000000         0.3838994974
f   1 1.0 
        0.7610000000         3.0840084332

  4 0
s   8 1.0 
     8236.0000000000         0.3342267437
     1235.0000000000         0.6230746416
      280.8000000000         1.0531059072
       79.2700000000         1.5831631342
       25.5900000000         1.9450988312
        8.9970000000         1.6429469100
        3.3190000000         0.6196591261
        0.3643000000        -0.0030667276
s   8 1.0 
     8236.0000000000        -0.1210101098
     1235.0000000000        -0.2265691066
      280.8000000000        -0.3857532897
       79.2700000000        -0.5967016836
       25.5900000000        -0.7858351262
        8.9970000000        -0.8165330321
        3.3190000000        -0.5188700868
        0.3643000000         0.3477346660
s   1 1.0 
        0.9059000000         0.6617901318
s   1 1.0 
        0.1285000000         0.1529633682
p   3 1.0 
       18.7100000000         2.1868515589
        4.1330000000         2.0503123413
        1.2000000000         1.4599445297
p   1 1.0 
        0.3827000000         0.4290551959
p   1 1.0 
        0.1209000000         0.1016185431
d   1 1.0 
        1.0970000000         3.3522135855
d   1 1.0 
        0.3180000000         0.3838994974
f   1 1.0 
        0.7610000000         3.0840084332

  5 0
s   8 1.0 
     8236.0000000000         0.3342267437
     1235.0000000000         0.6230746416
      280.8000000000         1.0531059072
       79.2700000000         1.5831631342
       25.5900000000         1.9450988312
        8.9970000000         1.6429469100
        3.3190000000         0.6196591261
        0.3643000000        -0.0030667276
s   8 1.0 
     8236.0000000000        -0.1210101098
     1235.0000000000        -0.2265691066
      280.8000000000        -0.3857532897
       79.2700000000        -0.5967016836
       25.5900000000        -0.7858351262
        8.9970000000        -0.8165330321
        3.3190000000        -0.5188700868
        0.3643000000         0.3477346660
s   1 1.0 
        0.9059000000         0.6617901318
s   1 1.0 
        0.1285000000         0.1529633682
p   3 1.0 
       18.7100000000         2.1868515589
        4.1330000000         2.0503123413
        1.2000000000         1.4599445297
p   1 1.0 
        0.3827000000         0.4290551959
p   1 1.0 
        0.1209000000         0.1016185431
d   1 1.0 
        1.0970000000         3.3522135855
d   1 1.0 
        0.3180000000         0.3838994974
f   1 1.0 
        0.7610000000         3.0840084332

  6 0
s   8 1.0 
     8236.0000000000         0.3342267437
     1235.0000000000         0.6230746416
      280.8000000000         1.0531059072
       79.2700000000         1.5831631342
       25.5900000000         1.9450988312
        8.9970000000         1.6429469100
        3.3190000000         0.6196591261
        0.3643000000        -0.0030667276
s   8 1.0 
     8236.0000000000        -0.1210101098
     1235.0000000000        -0.2265691066
      280.8000000000        -0.3857532897
       79.2700000000        -0.5967016836
       25.5900000000        -0.7858351262
        8.9970000000        -0.8165330321
        3.3190000000        -0.5188700868
        0.3643000000         0.3477346660
s   1 1.0 
        0.9059000000         0.6617901318
s   1 1.0 
        0.1285000000         0.1529633682
p   3 1.0 
       18.7100000000         2.1868515589
        4.1330000000         2.0503123413
        1.2000000000         1.4599445297
p   1 1.0 
        0.3827000000         0.4290551959
p   1 1.0 
        0.1209000000         0.1016185431
d   1 1.0 
        1.0970000000         3.3522135855
d   1 1.0 
        0.3180000000         0.3838994974
f   1 1.0 
        0.7610000000         3.0840084332

  7 0
s   3 1.0 
       33.8700000000         0.2551080577
        5.0950000000         0.4600978881
        1.1590000000         0.6784140671
s   1 1.0 
        0.3258000000         0.3073430538
s   1 1.0 
        0.1027000000         0.1292968442
p   1 1.0 
        1.4070000000         2.1842769845
p   1 1.0 
        0.3880000000         0.4364954740
d   1 1.0 
        1.0570000000         3.1412413909

  8 0
s   3 1.0 
       33.8700000000         0.2551080577
        5.0950000000         0.4600978881
        1.1590000000         0.6784140671
s   1 1.0 
        0.3258000000         0.3073430538
s   1 1.0 
        0.1027000000         0.1292968442
p   1 1.0 
        1.4070000000         2.1842769845
p   1 1.0 
        0.3880000000         0.4364954740
d   1 1.0 
        1.0570000000         3.1412413909

  9 0
s   3 1.0 
       33.8700000000         0.2551080577
        5.0950000000         0.4600978881
        1.1590000000         0.6784140671
s   1 1.0 
        0.3258000000         0.3073430538
s   1 1.0 
        0.1027000000         0.1292968442
p   1 1.0 
        1.4070000000         2.1842769845
p   1 1.0 
        0.3880000000         0.4364954740
d   1 1.0 
        1.0570000000         3.1412413909

 10 0
s   3 1.0 
       33.8700000000         0.2551080577
        5.0950000000         0.4600978881
        1.1590000000         0.6784140671
s   1 1.0 
        0.3258000000         0.3073430538
s   1 1.0 
        0.1027000000         0.1292968442
p   1 1.0 
        1.4070000000         2.1842769845
p   1 1.0 
        0.3880000000         0.4364954740
d   1 1.0 
        1.0570000000         3.1412413909

 11 0
s   3 1.0 
       33.8700000000         0.2551080577
        5.0950000000         0.4600978881
        1.1590000000         0.6784140671
s   1 1.0 
        0.3258000000         0.3073430538
s   1 1.0 
        0.1027000000         0.1292968442
p   1 1.0 
        1.4070000000         2.1842769845
p   1 1.0 
        0.3880000000         0.4364954740
d   1 1.0 
        1.0570000000         3.1412413909

 12 0
s   3 1.0 
       33.8700000000         0.2551080577
        5.0950000000         0.4600978881
        1.1590000000         0.6784140671
s   1 1.0 
        0.3258000000         0.3073430538
s   1 1.0 
        0.1027000000         0.1292968442
p   1 1.0 
        1.4070000000         2.1842769845
p   1 1.0 
        0.3880000000         0.4364954740
d   1 1.0 
        1.0570000000         3.1412413909

[5D]
[7F]
[9G]
[MO]
 Sym=     1a
 Ene= -1.01790487722509E+01
 Spin= Alpha
 Occup= 2.000000
  1      -0.957794997417
  2      -0.012278855600
  3      -0.050623635042
  4      -0.019738217771
  5      -0.000056273564
  6      -0.000023836140
  7      -0.000020081565
  8      -0.000042093588
  9       0.001572685403
 10      -0.000288631397
 11      -0.001528880568
 12       0.000838937991
 13       0.001124967960
 14      -0.000652317947
 15       0.000934381337
 16      -0.001002224499
 17      -0.000552696880
 18      -0.000800691613
 19      -0.000112047756
 20      -0.001298744149
 21      -0.001276819125
 22       0.000291262447
 23      -0.001751699274
 24      -0.000084650880
 25       0.001199234455
 26       0.000408606502
 27      -0.000968360098
 28       0.000237054366
 29      -0.000062829645
 30       0.000438232404
 31      -0.193545187669
 32      -0.000878222448
 33      -0.011078228786
 34       0.009787369807
 35       0.000647002786
 36       0.000270035996
 37      -0.000090295811
 38      -0.004662086279
 39      -0.002316469634
 40       0.000363780814
 41      -0.002058270505
 42      -0.003192158234
 43      -0.002694355711
 44      -0.000172272457
 45       0.000129019068
 46      -0.000129224515
 47       0.000105566533
 48       0.000147129191
 49      -0.004076528443
 50       0.000248553461
 51      -0.002629391148
 52       0.003354807001
 53       0.003442309585
 54       0.000209008703
 55       0.000592815508
 56       0.000317546579
 57      -0.000033854814
 58      -0.000153758604
 59       0.000062352426
 60       0.000862671661
 61      -0.004675040007
 62       0.000789054801
 63      -0.000318358302
 64      -0.011122969366
 65       0.000341448681
 66      -0.000017445110
 67      -0.000231882887
 68      -0.003025919260
 69      -0.000092832005
 70       0.001705697568
 71       0.002750028464
 72       0.001773853243
 73       0.000174180912
 74       0.000101583019
 75      -0.000082745145
 76       0.000148640432
 77      -0.000007591872
 78       0.000021522391
 79      -0.001466341117
 80      -0.001606084623
 81      -0.002471224099
 82       0.001828363594
 83      -0.000257546746
 84      -0.000113124191
 85       0.000040482564
 86       0.000095856248
 87       0.000119333152
 88       0.000088422339
 89       0.000209959889
 90       0.000102850207
 91       0.002154587880
 92       0.002486609820
 93       0.000556420006
 94       0.007949758522
 95       0.000059055177
 96      -0.000043316351
 97      -0.000023157951
 98      -0.002768321805
 99       0.000625987730
100       0.001683987061
101      -0.003809957252
102       0.001216824314
103       0.003535344958
104      -0.000062008483
105       0.000125122830
106       0.000085625480
107      -0.000001299461
108       0.000160877876
109      -0.000209039508
110       0.001976846015
111       0.000524822076
112      -0.001131770882
113       0.000942856684
114       0.000004192245
115      -0.000148645562
116       0.000031199085
117       0.000007971859
118      -0.000135526777
119      -0.000029862686
120      -0.000025258154
121      -0.001799753075
122       0.000580488064
123      -0.000088893312
124      -0.011006293531
125       0.000181085488
126      -0.000155170685
127      -0.000266831022
128      -0.000631363255
129       0.001424508556
130       0.002091679142
131       0.000004362545
132      -0.001727353016
133      -0.002672415899
134      -0.000157961637
135      -0.000077147202
136      -0.000121704162
137       0.000215630901
138       0.000115142895
139       0.002910174861
140       0.000258838732
141       0.002101560939
142      -0.002983500748
143      -0.002252157101
144       0.000025723331
145       0.000098944650
146       0.000288911529
147      -0.000116590118
148      -0.000050269890
149       0.000030983177
150       0.000194773317
151      -0.062586332664
152       0.000408431261
153      -0.004334891351
154       0.012310341230
155       0.000000212313
156      -0.000450744398
157      -0.000617149043
158       0.000449282857
159       0.003258894012
160       0.004000109700
161       0.002949646969
162       0.002212011075
163       0.001180859715
164       0.000064364559
165       0.000088965235
166       0.000237589727
167      -0.000064594198
168       0.000138815793
169       0.004805005373
170       0.001099161210
171       0.005388861030
172      -0.004050332853
173      -0.002394302829
174       0.000059461743
175       0.000264741533
176       0.001028100049
177      -0.000713308282
178       0.000260537686
179       0.000125658927
180       0.000204364181
181      -0.000208860148
182       0.006042226531
183       0.001762375371
184       0.000634930753
185       0.000028412453
186      -0.000979315743
187       0.002461820657
188      -0.000388895604
189      -0.002984642299
190       0.000870040568
191      -0.001424568341
192       0.000074198269
193       0.000499028558
194      -0.000088030135
195      -0.000153932953
196       0.004552898202
197       0.001109883087
198       0.000036927886
199      -0.000031065972
200      -0.000086560004
201      -0.001759541431
202      -0.001654652776
203      -0.000871839535
204      -0.000011955969
205       0.000223401656
206       0.000242977109
207      -0.000097353541
208       0.000227814960
209       0.000084951352
210       0.000991713878
211      -0.000076884325
212      -0.000110172531
213      -0.000040034705
214      -0.000020848783
215      -0.000715811529
216       0.000071434462
217       0.000618310779
218      -0.000062931884
219       0.000010102184
220      -0.000010713975
221       0.000052192546
222       0.000044981286
223       0.000035834177
224       0.004059512420
225       0.001593523750
226      -0.000108168671
227       0.000021687964
228       0.000077852152
229      -0.000967118944
230       0.000502865536
231       0.001035203624
232       0.000022240222
233      -0.000121912818
234       0.000011523207
235       0.000053212402
236      -0.000074935337
237       0.000014487631
238      -0.000767857709
239       0.000020524915
240       0.000032539633
241       0.000089731471
242       0.000140591873
243      -0.000802526092
244      -0.000068613941
245       0.000289773332
246       0.000089267583
247      -0.000015301412
248       0.000134812239
249      -0.000023658755
250       0.000014201084
251      -0.000061126360
252       0.004971942962
253       0.000542733131
254      -0.000045087177
255      -0.000032742844
256      -0.000003818410
257       0.001190985717
258       0.001868609134
259       0.001502271063
260      -0.000053130683
261       0.000239907371
262       0.000130497425
263      -0.000121586895
264       0.000145639862
 Sym=     1a
 Ene= -1.01777142306042E+01
 Spin= Alpha
 Occup= 2.000000
  1      -0.194501993686
  2      -0.003967770039
  3      -0.009400162853
  4      -0.015581633084
  5       0.000557999793
  6       0.000390978066
  7       0.000119915454
  8      -0.003851406186
  9      -0.002032311368
 10      -0.000357785861
 11      -0.004184395380
 12      -0.000553136330
 13       0.002460094697
 14      -0.000014732457
 15       0.000307280038
 16      -0.000310751495
 17      -0.000432235037
 18      -0.000490104961
 19       0.004055389678
 20      -0.004034048103
 21      -0.000235732365
 22      -0.000713445955
 23      -0.004871987666
 24       0.000207740680
 25       0.001134484061
 26       0.000529936935
 27      -0.000520063487
 28       0.000099927844
 29       0.000142651552
 30       0.001230874838
 31       0.959645933741
 32       0.012778179541
 33       0.050340228073
 34       0.022708316237
 35       0.000123702267
 36       0.000142233574
 37       0.000020976369
 38       0.000496840513
 39      -0.000773037400
 40      -0.002270148334
 41      -0.000938379755
 42      -0.001788260982
 43      -0.002470267151
 44       0.000191237408
 45      -0.000539945833
 46       0.001524329348
 47       0.000503750392
 48       0.000936379846
 49      -0.002007536508
 50      -0.003231988324
 51      -0.001822037616
 52       0.003702137422
 53       0.001022150402
 54       0.000087525761
 55       0.001229254769
 56       0.000970872691
 57      -0.001121606338
 58       0.000530256691
 59       0.000168408051
 60       0.000967021403
 61       0.030157300376
 62      -0.001163252865
 63       0.002630862940
 64      -0.014694673609
 65      -0.000421218919
 66       0.000221323205
 67       0.000585886089
 68       0.003836297531
 69      -0.001648627836
 70      -0.004798943447
 71       0.004381912139
 72       0.001655917836
 73      -0.000771904809
 74      -0.000026615365
 75       0.000374208521
 76      -0.000055377247
 77      -0.000310279305
 78      -0.000085686018
 79      -0.004552139342
 80       0.007223857529
 81      -0.001492351185
 82      -0.000173614674
 83       0.005695730479
 84       0.000096522484
 85       0.001136076810
 86      -0.000079859023
 87      -0.000825911879
 88       0.000584897431
 89      -0.000253586218
 90       0.000358025247
 91       0.001583234786
 92       0.000286278154
 93       0.000230728037
 94       0.012152697742
 95      -0.000031125699
 96       0.000231398125
 97       0.000294332066
 98       0.000049104430
 99      -0.001545575740
100      -0.002100483303
101      -0.002531057915
102       0.001366070913
103       0.002891263901
104       0.000091519210
105      -0.000172365949
106       0.000036658457
107       0.000019315284
108      -0.000208951885
109      -0.002794651725
110       0.003776327787
111      -0.000534176493
112       0.000490241567
113       0.004614763514
114       0.000088693529
115       0.000270513646
116       0.000005950090
117      -0.000147587863
118       0.000052776200
119      -0.000089436409
120       0.000281867946
121      -0.003276813083
122      -0.002366491508
123      -0.000611731946
124      -0.010261179349
125       0.000138830689
126      -0.000031229118
127      -0.000049111753
128      -0.002191301199
129      -0.001305203358
130      -0.001299734344
131      -0.000934591500
132      -0.003362361728
133      -0.004308722171
134       0.000035038482
135       0.000073330139
136       0.000023645367
137      -0.000113031521
138      -0.000022245665
139       0.002069514011
140       0.001266353707
141       0.002237913751
142      -0.002649550899
143      -0.000459372675
144      -0.000068748811
145       0.000058905101
146      -0.000072692097
147       0.000088589137
148       0.000052135836
149       0.000144155793
150       0.000029608383
151      -0.019918013910
152      -0.000294427819
153      -0.001385297723
154       0.013582873969
155       0.000135800177
156       0.000097748535
157      -0.000014861659
158      -0.001569379755
159      -0.000840559475
160       0.000176469640
161       0.003458331859
162       0.002333389709
163       0.000696558216
164      -0.000055073828
165       0.000123947112
166      -0.000001579516
167      -0.000092381325
168       0.000073154335
169       0.002746349203
170      -0.002169032817
171       0.001850739356
172      -0.000296368413
173      -0.002048407235
174       0.000214018780
175       0.000136901349
176       0.000408533818
177      -0.000355897976
178      -0.000085593987
179      -0.000125088049
180       0.000206644082
181       0.000001935014
182      -0.002986861809
183      -0.000346109055
184       0.000191578975
185       0.000040825188
186      -0.000351913023
187      -0.000922349042
188      -0.000869336084
189       0.000201890521
190       0.000359748074
191      -0.000276874230
192       0.000147115439
193       0.000030325120
194      -0.000061968715
195       0.000256545157
196      -0.002516933749
197      -0.001389698771
198       0.000225846792
199       0.000781252156
200       0.000763074399
201       0.000393087760
202       0.001417767560
203       0.001896582804
204      -0.000452194473
205      -0.000430492449
206      -0.001385610966
207       0.000594981206
208      -0.000389271066
209      -0.000036597036
210      -0.006229242716
211      -0.000522303706
212      -0.000103381771
213      -0.000054160700
214      -0.000093576983
215       0.002529874078
216       0.000154442173
217      -0.000832797152
218       0.000105347767
219       0.000188255832
220       0.000219856088
221      -0.000128938255
222       0.000087308425
223       0.000013429122
224       0.002218665953
225       0.000196422370
226       0.000124599583
227      -0.000044627892
228      -0.000129175408
229      -0.000901684637
230      -0.000656053392
231      -0.000142229567
232      -0.000047096481
233       0.000095039935
234      -0.000160038086
235      -0.000005477708
236       0.000042808084
237      -0.000009522704
238      -0.004367061134
239      -0.001262197710
240      -0.000035617310
241      -0.000044968179
242      -0.000039106877
243      -0.000589067761
244      -0.000903835533
245      -0.001174272841
246      -0.000036884803
247      -0.000094830379
248      -0.000062629846
249       0.000064495645
250      -0.000038020257
251      -0.000044372759
252       0.000944399347
253       0.000178291239
254      -0.000134011675
255      -0.000067695518
256       0.000011374553
257       0.000197554709
258      -0.000025423142
259      -0.000067830429
260       0.000027725511
261       0.000059104123
262       0.000003788034
263      -0.000049761671
264      -0.000076732700
 Sym=     1a
 Ene= -1.01749510812127E+01
 Spin= Alpha
 Occup= 2.000000
  1       0.066714330860
  2       0.001904367529
  3       0.002461876301
  4       0.015113210397
  5       0.000186457752
  6       0.000422045503
  7       0.000473060765
  8      -0.000618095795
  9      -0.002458800775
 10      -0.003131183416
 11       0.002398601882
 12      -0.001614773795
 13      -0.004244606656
 14       0.000198557189
 15      -0.000124566501
 16       0.000432637869
 17      -0.000037096740
 18       0.000174362152
 19       0.001385412848
 20       0.003564164344
 21       0.004083395282
 22      -0.002369512370
 23       0.001039455221
 24      -0.000133151761
 25      -0.000408927711
 26      -0.001085653236
 27       0.001028299692
 28      -0.000253635230
 29       0.000011645455
 30      -0.000459877157
 31      -0.006988481636
 32       0.000095961853
 33      -0.000139047633
 34      -0.012500384341
 35       0.000089594787
 36       0.000107924762
 37       0.000168086751
 38      -0.000456478029
 39      -0.001375298610
 40      -0.001934828881
 41       0.000973534460
 42       0.002117535605
 43       0.002651066762
 44       0.000039428155
 45      -0.000140213490
 46      -0.000007001276
 47       0.000046823460
 48      -0.000053228702
 49       0.000420835807
 50       0.002301602945
 51       0.000426881894
 52      -0.001453230411
 53      -0.000074826723
 54       0.000143109924
 55      -0.000281445483
 56      -0.000134638070
 57       0.000073999952
 58      -0.000278911210
 59      -0.000153110440
 60      -0.000215748071
 61       0.002129456728
 62       0.002161653029
 63       0.000442374735
 64       0.008783385464
 65       0.000011692060
 66       0.000104740327
 67       0.000085146047
 68      -0.001853183224
 69      -0.002590424974
 70      -0.001838067230
 71      -0.004319609866
 72      -0.002080197492
 73       0.000000801590
 74       0.000092505931
 75      -0.000073759543
 76       0.000136242479
 77      -0.000050208470
 78      -0.000039032282
 79       0.001724578468
 80      -0.000534213936
 81       0.001337410656
 82      -0.001749356648
 83      -0.001508670321
 84       0.000029548287
 85       0.000129358240
 86      -0.000035608876
 87       0.000028892200
 88       0.000049136304
 89       0.000094705972
 90       0.000086545428
 91      -0.003295535978
 92       0.000395884877
 93      -0.000086876082
 94      -0.013220464219
 95       0.000371550510
 96       0.000161133337
 97      -0.000021193913
 98      -0.003783361885
 99      -0.001568516652
100       0.000327654728
101       0.003482551517
102      -0.000058313615
103      -0.001847427882
104       0.000008159821
105       0.000110521072
106       0.000092500113
107      -0.000040066391
108       0.000119909458
109      -0.001648954853
110      -0.002613505338
111      -0.003308795837
112       0.002704963398
113      -0.000918212269
114      -0.000103248798
115      -0.000087681727
116      -0.000141152358
117       0.000307131863
118      -0.000132749445
119       0.000045204549
120      -0.000059855822
121      -0.063941831998
122       0.001260354941
123      -0.004386407433
124       0.015062731638
125       0.000675554601
126      -0.000035086261
127      -0.000533893716
128      -0.006085662360
129       0.000712372994
130       0.005438904817
131       0.000525425216
132       0.003385281487
133       0.004966788568
134       0.000207606090
135      -0.000492579370
136       0.000210869915
137       0.000186876537
138      -0.000115960160
139       0.000906501616
140      -0.007946283616
141      -0.001951610313
142       0.003523436957
143      -0.003448681025
144      -0.000257966571
145      -0.000991139044
146       0.000139078615
147       0.000947303481
148      -0.000476638715
149       0.000288612478
150      -0.000375583732
151      -0.975330669017
152      -0.013279172723
153      -0.051520873480
154      -0.023323239845
155      -0.000012340725
156      -0.000014789072
157       0.000020135470
158      -0.002433278748
159       0.000517927394
160       0.001996606723
161      -0.003331857017
162      -0.002088509420
163      -0.000627683998
164      -0.000117739974
165       0.000803661926
166      -0.001315604146
167      -0.000663045430
168      -0.000994170224
169      -0.001684415154
170       0.002334901455
171      -0.001755680617
172       0.000076235674
173       0.001270517566
174      -0.000221773897
175      -0.001124728840
176      -0.000804753019
177       0.000901797251
178      -0.000271634116
179       0.000169868055
180      -0.001094034851
181      -0.000158944354
182       0.002274887530
183       0.000712922732
184      -0.000062492049
185       0.000048678828
186       0.000272671621
187      -0.000363111542
188      -0.000787797537
189      -0.001352452434
190       0.000012941616
191       0.000117645616
192       0.000112526872
193      -0.000090718059
194      -0.000014306770
195       0.000013845131
196       0.001044051085
197      -0.000035010829
198      -0.000004102157
199      -0.000132584496
200      -0.000117552128
201      -0.000426151695
202      -0.000389828709
203      -0.000483541278
204       0.000062764566
205       0.000012794449
206       0.000148052403
207      -0.000047391279
208       0.000044721332
209       0.000033187033
210       0.004214690082
211       0.001131769884
212      -0.000096445215
213      -0.000071463176
214      -0.000017757305
215      -0.001401865646
216      -0.000750423016
217      -0.000454146292
218      -0.000068389566
219       0.000075402749
220      -0.000004840150
221       0.000065658835
222       0.000115107362
223       0.000027135688
224       0.000258207662
225       0.000009963405
226      -0.000115749140
227       0.000041328286
228       0.000128521219
229      -0.001036028646
230      -0.000585130317
231      -0.000312308251
232      -0.000034299689
233      -0.000111472252
234       0.000024790769