[Molden Format]
[Title]
 Molden file created by orca_2mkl for BaseName=orca

[Atoms] AU
O    1   8         25.9998610189        26.2465388849        27.3834996616 
C    2   6         27.9132083128        27.7521965590        28.1153757245 
C    3   6         29.8844316667        28.2963393305        26.3007339032 
C    4   6         31.7200901480        29.8544540544        27.0172560333 
C    5   6         31.7893414341        30.9971463842        29.4013082564 
C    6   6         29.8465348850        30.6473268407        31.0040824899 
C    7   6         29.7913672565        31.8187682177        33.5801452330 
O    8   8         28.4282789113        31.2901444970        35.3457458809 
C    9   6         27.8973838764        28.9867106901        30.3689550876 
H   10   1         25.0574205369        25.5090528226        28.7394482811 
H   11   1         29.9748333598        27.2227562240        24.5445079522 
H   12   1         33.3779430448        30.0553535618        25.7550496358 
H   13   1         33.4271285688        32.1635517854        29.8153350848 
H   14   1         31.3971203194        33.1304309991        33.8065867461 
H   15   1         26.2123899587        28.7465624468        31.5393033278 
[GTO]
  1 0
s   8 1.0 
    15330.0000000000         0.5107820689
     2299.0000000000         0.9520320559
      522.4000000000         1.6143309227
      147.3000000000         2.4433650471
       47.5500000000         3.0486061870
       16.7600000000         2.6183461361
        6.2070000000         1.0052339944
        0.6882000000        -0.0044964733
s   8 1.0 
    15330.0000000000        -0.1936657939
     2299.0000000000        -0.3632249960
      522.4000000000        -0.6192189910
      147.3000000000        -0.9677187516
       47.5500000000        -1.2940243602
       16.7600000000        -1.3817163263
        6.2070000000        -0.8447542687
        0.6882000000         0.5573175589
s   1 1.0 
        1.7520000000         1.0853271534
s   1 1.0 
        0.2384000000         0.2431586819
p   3 1.0 
       34.4600000000         4.8988750613
        7.7490000000         4.7502609215
        2.2800000000         3.2044979545
p   1 1.0 
        0.7156000000         0.9381623559
p   1 1.0 
        0.2140000000         0.2074709543
d   1 1.0 
        2.3140000000        12.3767310624
d   1 1.0 
        0.6450000000         1.3234257612
f   1 1.0 
        1.4280000000        12.7097950062

  2 0
s   8 1.0 
     8236.0000000000         0.3342267437
     1235.0000000000         0.6230746416
      280.8000000000         1.0531059072
       79.2700000000         1.5831631342
       25.5900000000         1.9450988312
        8.9970000000         1.6429469100
        3.3190000000         0.6196591261
        0.3643000000        -0.0030667276
s   8 1.0 
     8236.0000000000        -0.1210101098
     1235.0000000000        -0.2265691066
      280.8000000000        -0.3857532897
       79.2700000000        -0.5967016836
       25.5900000000        -0.7858351262
        8.9970000000        -0.8165330321
        3.3190000000        -0.5188700868
        0.3643000000         0.3477346660
s   1 1.0 
        0.9059000000         0.6617901318
s   1 1.0 
        0.1285000000         0.1529633682
p   3 1.0 
       18.7100000000         2.1868515589
        4.1330000000         2.0503123413
        1.2000000000         1.4599445297
p   1 1.0 
        0.3827000000         0.4290551959
p   1 1.0 
        0.1209000000         0.1016185431
d   1 1.0 
        1.0970000000         3.3522135855
d   1 1.0 
        0.3180000000         0.3838994974
f   1 1.0 
        0.7610000000         3.0840084332

  3 0
s   8 1.0 
     8236.0000000000         0.3342267437
     1235.0000000000         0.6230746416
      280.8000000000         1.0531059072
       79.2700000000         1.5831631342
       25.5900000000         1.9450988312
        8.9970000000         1.6429469100
        3.3190000000         0.6196591261
        0.3643000000        -0.0030667276
s   8 1.0 
     8236.0000000000        -0.1210101098
     1235.0000000000        -0.2265691066
      280.8000000000        -0.3857532897
       79.2700000000        -0.5967016836
       25.5900000000        -0.7858351262
        8.9970000000        -0.8165330321
        3.3190000000        -0.5188700868
        0.3643000000         0.3477346660
s   1 1.0 
        0.9059000000         0.6617901318
s   1 1.0 
        0.1285000000         0.1529633682
p   3 1.0 
       18.7100000000         2.1868515589
        4.1330000000         2.0503123413
        1.2000000000         1.4599445297
p   1 1.0 
        0.3827000000         0.4290551959
p   1 1.0 
        0.1209000000         0.1016185431
d   1 1.0 
        1.0970000000         3.3522135855
d   1 1.0 
        0.3180000000         0.3838994974
f   1 1.0 
        0.7610000000         3.0840084332

  4 0
s   8 1.0 
     8236.0000000000         0.3342267437
     1235.0000000000         0.6230746416
      280.8000000000         1.0531059072
       79.2700000000         1.5831631342
       25.5900000000         1.9450988312
        8.9970000000         1.6429469100
        3.3190000000         0.6196591261
        0.3643000000        -0.0030667276
s   8 1.0 
     8236.0000000000        -0.1210101098
     1235.0000000000        -0.2265691066
      280.8000000000        -0.3857532897
       79.2700000000        -0.5967016836
       25.5900000000        -0.7858351262
        8.9970000000        -0.8165330321
        3.3190000000        -0.5188700868
        0.3643000000         0.3477346660
s   1 1.0 
        0.9059000000         0.6617901318
s   1 1.0 
        0.1285000000         0.1529633682
p   3 1.0 
       18.7100000000         2.1868515589
        4.1330000000         2.0503123413
        1.2000000000         1.4599445297
p   1 1.0 
        0.3827000000         0.4290551959
p   1 1.0 
        0.1209000000         0.1016185431
d   1 1.0 
        1.0970000000         3.3522135855
d   1 1.0 
        0.3180000000         0.3838994974
f   1 1.0 
        0.7610000000         3.0840084332

  5 0
s   8 1.0 
     8236.0000000000         0.3342267437
     1235.0000000000         0.6230746416
      280.8000000000         1.0531059072
       79.2700000000         1.5831631342
       25.5900000000         1.9450988312
        8.9970000000         1.6429469100
        3.3190000000         0.6196591261
        0.3643000000        -0.0030667276
s   8 1.0 
     8236.0000000000        -0.1210101098
     1235.0000000000        -0.2265691066
      280.8000000000        -0.3857532897
       79.2700000000        -0.5967016836
       25.5900000000        -0.7858351262
        8.9970000000        -0.8165330321
        3.3190000000        -0.5188700868
        0.3643000000         0.3477346660
s   1 1.0 
        0.9059000000         0.6617901318
s   1 1.0 
        0.1285000000         0.1529633682
p   3 1.0 
       18.7100000000         2.1868515589
        4.1330000000         2.0503123413
        1.2000000000         1.4599445297
p   1 1.0 
        0.3827000000         0.4290551959
p   1 1.0 
        0.1209000000         0.1016185431
d   1 1.0 
        1.0970000000         3.3522135855
d   1 1.0 
        0.3180000000         0.3838994974
f   1 1.0 
        0.7610000000         3.0840084332

  6 0
s   8 1.0 
     8236.0000000000         0.3342267437
     1235.0000000000         0.6230746416
      280.8000000000         1.0531059072
       79.2700000000         1.5831631342
       25.5900000000         1.9450988312
        8.9970000000         1.6429469100
        3.3190000000         0.6196591261
        0.3643000000        -0.0030667276
s   8 1.0 
     8236.0000000000        -0.1210101098
     1235.0000000000        -0.2265691066
      280.8000000000        -0.3857532897
       79.2700000000        -0.5967016836
       25.5900000000        -0.7858351262
        8.9970000000        -0.8165330321
        3.3190000000        -0.5188700868
        0.3643000000         0.3477346660
s   1 1.0 
        0.9059000000         0.6617901318
s   1 1.0 
        0.1285000000         0.1529633682
p   3 1.0 
       18.7100000000         2.1868515589
        4.1330000000         2.0503123413
        1.2000000000         1.4599445297
p   1 1.0 
        0.3827000000         0.4290551959
p   1 1.0 
        0.1209000000         0.1016185431
d   1 1.0 
        1.0970000000         3.3522135855
d   1 1.0 
        0.3180000000         0.3838994974
f   1 1.0 
        0.7610000000         3.0840084332

  7 0
s   8 1.0 
     8236.0000000000         0.3342267437
     1235.0000000000         0.6230746416
      280.8000000000         1.0531059072
       79.2700000000         1.5831631342
       25.5900000000         1.9450988312
        8.9970000000         1.6429469100
        3.3190000000         0.6196591261
        0.3643000000        -0.0030667276
s   8 1.0 
     8236.0000000000        -0.1210101098
     1235.0000000000        -0.2265691066
      280.8000000000        -0.3857532897
       79.2700000000        -0.5967016836
       25.5900000000        -0.7858351262
        8.9970000000        -0.8165330321
        3.3190000000        -0.5188700868
        0.3643000000         0.3477346660
s   1 1.0 
        0.9059000000         0.6617901318
s   1 1.0 
        0.1285000000         0.1529633682
p   3 1.0 
       18.7100000000         2.1868515589
        4.1330000000         2.0503123413
        1.2000000000         1.4599445297
p   1 1.0 
        0.3827000000         0.4290551959
p   1 1.0 
        0.1209000000         0.1016185431
d   1 1.0 
        1.0970000000         3.3522135855
d   1 1.0 
        0.3180000000         0.3838994974
f   1 1.0 
        0.7610000000         3.0840084332

  8 0
s   8 1.0 
    15330.0000000000         0.5107820689
     2299.0000000000         0.9520320559
      522.4000000000         1.6143309227
      147.3000000000         2.4433650471
       47.5500000000         3.0486061870
       16.7600000000         2.6183461361
        6.2070000000         1.0052339944
        0.6882000000        -0.0044964733
s   8 1.0 
    15330.0000000000        -0.1936657939
     2299.0000000000        -0.3632249960
      522.4000000000        -0.6192189910
      147.3000000000        -0.9677187516
       47.5500000000        -1.2940243602
       16.7600000000        -1.3817163263
        6.2070000000        -0.8447542687
        0.6882000000         0.5573175589
s   1 1.0 
        1.7520000000         1.0853271534
s   1 1.0 
        0.2384000000         0.2431586819
p   3 1.0 
       34.4600000000         4.8988750613
        7.7490000000         4.7502609215
        2.2800000000         3.2044979545
p   1 1.0 
        0.7156000000         0.9381623559
p   1 1.0 
        0.2140000000         0.2074709543
d   1 1.0 
        2.3140000000        12.3767310624
d   1 1.0 
        0.6450000000         1.3234257612
f   1 1.0 
        1.4280000000        12.7097950062

  9 0
s   8 1.0 
     8236.0000000000         0.3342267437
     1235.0000000000         0.6230746416
      280.8000000000         1.0531059072
       79.2700000000         1.5831631342
       25.5900000000         1.9450988312
        8.9970000000         1.6429469100
        3.3190000000         0.6196591261
        0.3643000000        -0.0030667276
s   8 1.0 
     8236.0000000000        -0.1210101098
     1235.0000000000        -0.2265691066
      280.8000000000        -0.3857532897
       79.2700000000        -0.5967016836
       25.5900000000        -0.7858351262
        8.9970000000        -0.8165330321
        3.3190000000        -0.5188700868
        0.3643000000         0.3477346660
s   1 1.0 
        0.9059000000         0.6617901318
s   1 1.0 
        0.1285000000         0.1529633682
p   3 1.0 
       18.7100000000         2.1868515589
        4.1330000000         2.0503123413
        1.2000000000         1.4599445297
p   1 1.0 
        0.3827000000         0.4290551959
p   1 1.0 
        0.1209000000         0.1016185431
d   1 1.0 
        1.0970000000         3.3522135855
d   1 1.0 
        0.3180000000         0.3838994974
f   1 1.0 
        0.7610000000         3.0840084332

 10 0
s   3 1.0 
       33.8700000000         0.2551080577
        5.0950000000         0.4600978881
        1.1590000000         0.6784140671
s   1 1.0 
        0.3258000000         0.3073430538
s   1 1.0 
        0.1027000000         0.1292968442
p   1 1.0 
        1.4070000000         2.1842769845
p   1 1.0 
        0.3880000000         0.4364954740
d   1 1.0 
        1.0570000000         3.1412413909

 11 0
s   3 1.0 
       33.8700000000         0.2551080577
        5.0950000000         0.4600978881
        1.1590000000         0.6784140671
s   1 1.0 
        0.3258000000         0.3073430538
s   1 1.0 
        0.1027000000         0.1292968442
p   1 1.0 
        1.4070000000         2.1842769845
p   1 1.0 
        0.3880000000         0.4364954740
d   1 1.0 
        1.0570000000         3.1412413909

 12 0
s   3 1.0 
       33.8700000000         0.2551080577
        5.0950000000         0.4600978881
        1.1590000000         0.6784140671
s   1 1.0 
        0.3258000000         0.3073430538
s   1 1.0 
        0.1027000000         0.1292968442
p   1 1.0 
        1.4070000000         2.1842769845
p   1 1.0 
        0.3880000000         0.4364954740
d   1 1.0 
        1.0570000000         3.1412413909

 13 0
s   3 1.0 
       33.8700000000         0.2551080577
        5.0950000000         0.4600978881
        1.1590000000         0.6784140671
s   1 1.0 
        0.3258000000         0.3073430538
s   1 1.0 
        0.1027000000         0.1292968442
p   1 1.0 
        1.4070000000         2.1842769845
p   1 1.0 
        0.3880000000         0.4364954740
d   1 1.0 
        1.0570000000         3.1412413909

 14 0
s   3 1.0 
       33.8700000000         0.2551080577
        5.0950000000         0.4600978881
        1.1590000000         0.6784140671
s   1 1.0 
        0.3258000000         0.3073430538
s   1 1.0 
        0.1027000000         0.1292968442
p   1 1.0 
        1.4070000000         2.1842769845
p   1 1.0 
        0.3880000000         0.4364954740
d   1 1.0 
        1.0570000000         3.1412413909

 15 0
s   3 1.0 
       33.8700000000         0.2551080577
        5.0950000000         0.4600978881
        1.1590000000         0.6784140671
s   1 1.0 
        0.3258000000         0.3073430538
s   1 1.0 
        0.1027000000         0.1292968442
p   1 1.0 
        1.4070000000         2.1842769845
p   1 1.0 
        0.3880000000         0.4364954740
d   1 1.0 
        1.0570000000         3.1412413909

[5D]
[7F]
[9G]
[MO]
 Sym=     1a
 Ene= -1.91669758984063E+01
 Spin= Alpha
 Occup= 2.000000
  1      -0.971021703919
  2       0.003185000272
  3      -0.051425118508
  4      -0.004922684254
  5      -0.000485927083
  6      -0.000415067133
  7      -0.001427397466
  8       0.001424464506
  9       0.001157061746
 10      -0.000057447313
 11       0.000459739577
 12       0.000489879237
 13      -0.000694641914
 14      -0.000059216145
 15       0.000144299862
 16       0.000103423753
 17      -0.000051344940
 18      -0.000257357857
 19      -0.000248399804
 20       0.000423010821
 21       0.000404037774
 22       0.000085238134
 23       0.000473916711
 24      -0.000025379800
 25       0.000042121693
 26       0.000044973151
 27      -0.000007569626
 28       0.000020483950
 29       0.000048447463
 30      -0.000111474278
 31      -0.000434193304
 32      -0.000892211572
 33       0.000287329934
 34      -0.003758990931
 35      -0.000046028461
 36      -0.000036774611
 37      -0.000008117565
 38       0.001595872087
 39       0.001241579052
 40       0.000561822200
 41      -0.001666260524
 42      -0.001843284673
 43      -0.001293065740
 44       0.000216861388
 45      -0.000225693346
 46      -0.000123752910
 47      -0.000057518104
 48      -0.000310364435
 49      -0.000559131406
 50       0.000808962773
 51       0.000015023754
 52      -0.000378529968
 53      -0.000079797047
 54       0.000016263224
 55      -0.000023288346
 56      -0.000011512321
 57      -0.000053401637
 58       0.000035774949
 59       0.000049568638
 60      -0.000127958536
 61      -0.000029100502
 62      -0.000061379692
 63       0.000044530860
 64       0.002471364997
 65       0.000040047690
 66       0.000025225944
 67       0.000009020370
 68      -0.000380646487
 69      -0.000195746604
 70       0.000051448273
 71       0.000703972823
 72       0.001015826680
 73       0.001090373658
 74       0.000032580122
 75       0.000002211384
 76       0.000014320449
 77      -0.000023808043
 78      -0.000052659782
 79      -0.000684931930
 80      -0.000102508979
 81      -0.000522774988
 82       0.000335245858
 83       0.000413884955
 84      -0.000016116695
 85       0.000096226858
 86       0.000043066243
 87      -0.000027333665
 88       0.000009044867
 89      -0.000010684393
 90       0.000072812412
 91      -0.000015956749
 92      -0.000037670347
 93      -0.000083032452
 94      -0.001883093932
 95       0.000016555403
 96       0.000014472628
 97      -0.000002023769
 98      -0.000085280461
 99      -0.000132526074
100      -0.000113080858
101       0.000617032965
102       0.000427582447
103       0.000107794104
104      -0.000001282205
105       0.000048563954
106       0.000036803529
107      -0.000019124872
108       0.000016137668
109      -0.000218103426
110      -0.000582691902
111      -0.000403923268
112       0.000380890629
113       0.000136726333
114       0.000020840747
115      -0.000014398439
116      -0.000011332931
117       0.000012981124
118      -0.000039441581
119      -0.000027855465
120       0.000021816888
121       0.000053001103
122       0.000107940517
123       0.000062687555
124       0.000629685772
125      -0.000018288731
126      -0.000011262602
127       0.000008867446
128       0.000151283887
129       0.000050778590
130      -0.000166447261
131      -0.000541701170
132      -0.000347104615
133      -0.000013826253
134       0.000002017499
135       0.000009871850
136       0.000001549882
137      -0.000003347989
138      -0.000004538889
139       0.000460483811
140      -0.000227683247
141       0.000099016710
142      -0.000145947018
143      -0.000383376016
144      -0.000002512198
145       0.000017592178
146       0.000005581159
147      -0.000014584424
148       0.000001826150
149      -0.000006862390
150      -0.000005588265
151      -0.000151069650
152      -0.000298722138
153      -0.000103204925
154      -0.002589305622
155      -0.000014124458
156      -0.000003233277
157       0.000016135152
158       0.000446705855
159       0.000250409092
160      -0.000098966388
161       0.000516719763
162       0.000601608257
163       0.000438470319
164      -0.000028289843
165      -0.000027036281
166      -0.000031028016
167       0.000028443339
168       0.000023239529
169       0.000624513406
170       0.000095709001
171       0.000499939654
172      -0.000327340026
173      -0.000346380593
174       0.000016627510
175       0.000016917282
176       0.000008143792
177       0.000001201295
178      -0.000019427101
179      -0.000019063510
180       0.000025897124
181      -0.000107321874
182      -0.000205985174
183      -0.000012177353
184       0.000028340180
185      -0.000001849608
186      -0.000003435055
187      -0.000012412816
188       0.000024288776
189       0.000154009657
190       0.000344740923
191      -0.000088367888
192      -0.000043728739
193       0.000046850497
194      -0.000015500522
195      -0.000003584832
196      -0.000014576781
197       0.000006697559
198       0.000009221448
199      -0.000121406661
200      -0.000000811946
201      -0.000053094864
202       0.000031007603
203       0.000074684739
204       0.000016818808
205      -0.000016419195
206      -0.000005922818
207       0.000000952566
208      -0.000009102027
209       0.000000173652
210      -0.000008758597
211      -0.000005335740
212      -0.000007956859
213       0.000002038299
214      -0.000117180983
215       0.000003462259
216       0.000000071951
217      -0.000003893721
218      -0.000023310388
219      -0.000004286802
220       0.000028009554
221      -0.000007653971
222      -0.000009238363
223       0.000032211657
224       0.000001979791
225      -0.000000020286
226      -0.000000708996
227      -0.000000141124
228      -0.000001789039
229      -0.000004127632
230       0.000012534391
231       0.000010072538
232      -0.000005173614
233      -0.000001275354
234      -0.000004669848
235       0.000002462966
236      -0.000000351183
237       0.000000683532
238       0.000002980684
239       0.000000724746
240       0.000001338183
241      -0.000114955350
242      -0.000240667003
243      -0.000056580500
244       0.004835918848
245       0.000023796357
246       0.000034732929
247       0.000008496705
248       0.000004960278
249      -0.000047456816
250       0.000092033376
251       0.001393086707
252       0.000342660449
253      -0.000995648211
254       0.000003705657
255      -0.000046781922
256      -0.000060802166
257       0.000012573017
258      -0.000051487143
259      -0.000417444366
260       0.001158193818
261       0.000641515590
262      -0.000386753543
263       0.000715613694
264       0.000060295426
265      -0.000001224958
266      -0.000006063629
267      -0.000014835409
268      -0.000066107289
269      -0.000039016284
270       0.000028766496
271      -0.000399855796
272       0.002849746528
273       0.000290426249
274       0.000161988270
275       0.000116467997
276      -0.000263606517
277       0.000872491158
278       0.000682056541
279      -0.001138461656
280       0.000342722796
281      -0.000707456685
282      -0.000542041829
283       0.000094028378
284       0.000355679790
285       0.000038793679
286       0.000785102487
287       0.000300156812
288      -0.000000093389
289       0.000003865665
290       0.000020489068
291       0.000002233487
292       0.000152895650
293       0.000123586403
294       0.000000418694
295       0.000019987467
296      -0.000004213439
297      -0.000020054493
298      -0.000030945709
299      -0.000024958078
300      -0.000575296726
301      -0.000054984713
302      -0.000000710881
303      -0.000000661460
304      -0.000001962297
305       0.000130217033
306      -0.000059572454
307      -0.000177833422
308      -0.000007985714
309       0.000005690715
310      -0.000003202744
311       0.000009106732
312       0.000017772338
313       0.000014901685
314       0.000466712383
315       0.000128478417
316      -0.000004832636
317      -0.000001806941
318      -0.000000604609
319      -0.000065766976
320      -0.000070039568
321      -0.000053794367
322      -0.000007050146
323       0.000010588314
324      -0.000006307648
325      -0.000007311636
326      -0.000006555028
327      -0.000001244418
328      -0.000177340776
329       0.000004103162
330       0.000005594733
331       0.000002651170
332      -0.000003913493
333       0.000056626459
334       0.000053657715
335       0.000029460184
336       0.000006550130
337      -0.000004479784
338      -0.000002190703
339      -0.000000723865
340      -0.000006909507
341       0.000039187986
342       0.000841592238
343       0.000212577321
344       0.000020164210
345       0.000014691287
346       0.000000883240
347       0.000306883713
348       0.000168625265
349       0.000048215251
350      -0.000041165730
351       0.000012132042
352      -0.000051442337
353       0.000022936847
354       0.000006860959
 Sym=     1a
 Ene= -1.91292133492397E+01
 Spin= Alpha
 Occup= 2.000000
  1       0.000004910408
  2       0.000006527122
  3      -0.000002937157
  4      -0.000104002843
  5       0.000001990499
  6       0.000001865492
  7       0.000000324394
  8      -0.000015550024
  9      -0.000012945467
 10       0.000000599479
 11      -0.000048164756
 12      -0.000020479649
 13       0.000024672816
 14      -0.000001213213
 15      -0.000000007934
 16      -0.000001284868
 17      -0.000000506099
 18       0.000001338316
 19       0.000010818325
 20      -0.000004041191
 21       0.000004563243
 22       0.000003974302
 23      -0.000005863746
 24       0.000000881259
 25      -0.000001218584
 26      -0.000000083260
 27       0.000001107453
 28       0.000000319401
 29       0.000000170163
 30      -0.000002102950
 31      -0.000068448626
 32      -0.000131628613
 33       0.000014282238
 34       0.000160342712
 35      -0.000004854308
 36       0.000000060610
 37       0.000006550415
 38       0.000051185664
 39      -0.000048797867
 40      -0.000154885393
 41       0.000126120603
 42      -0.000058986744
 43      -0.000311565735
 44      -0.000017738285
 45       0.000002480332
 46      -0.000019174325
 47       0.000002933424
 48       0.000002136927
 49      -0.000105450636
 50       0.000091238050
 51      -0.000027096900
 52       0.000013709529
 53       0.000076808281
 54      -0.000009707186
 55       0.000011459735
 56      -0.000018606577
 57       0.000003824903
 58       0.000009881961
 59       0.000006024128
 60      -0.000000848703
 61      -0.000009642187
 62      -0.000016664914
 63       0.000019204370
 64      -0.000805664986
 65       0.000003007379
 66       0.000004625193
 67       0.000006017876
 68      -0.000028974253
 69      -0.000032730407
 70      -0.000042666235
 71       0.000161186900
 72      -0.000077275777
 73      -0.000391478514
 74       0.000003659032
 75      -0.000002599122
 76       0.000003870207
 77      -0.000001585160
 78      -0.000004616261
 79      -0.000083233166
 80      -0.000041435106
 81      -0.000130184402
 82       0.000055236159
 83       0.000008646725
 84       0.000002732912
 85      -0.000005985637
 86      -0.000003215901
 87       0.000000142567
 88      -0.000007441512
 89      -0.000003723396
 90      -0.000002789296
 91      -0.000061318061
 92      -0.000121529567
 93      -0.000023741081
 94       0.001521374148
 95       0.000009939321
 96       0.000003434813
 97       0.000000055944
 98      -0.000060404552
 99      -0.000111108920
100      -0.000182467951
101      -0.000231541733
102       0.000070355294
103       0.000538428041
104      -0.000013908164
105       0.000006145280
106      -0.000002517434
107      -0.000002921434
108       0.000000519353
109      -0.000085991488
110      -0.000241424844
111      -0.000145840063
112       0.000160226397
113       0.000025731010
114      -0.000005813028
115      -0.000016418252
116      -0.000007484657
117       0.000004288531
118      -0.000005829086
119      -0.000006722675
120      -0.000000500893
121      -0.000162371432
122      -0.000310806557
123      -0.000047157731
124      -0.002410733077
125      -0.000034946007
126      -0.000000500332
127       0.000010172634
128       0.000615558417
129       0.000130299885
130      -0.000351109059
131       0.000851999313
132       0.000742217460
133       0.000510401414
134       0.000001497626
135       0.000018388735
136       0.000021886254
137       0.000006614202
138       0.000011733387
139       0.000357367200
140      -0.000047689419
141       0.000137414203
142      -0.000221805415
143      -0.000246507394
144       0.000005761646
145      -0.000043452278
146      -0.000023514696
147       0.000027772565
148      -0.000008435535
149       0.000009727543
150      -0.000028931158
151      -0.000200745009
152      -0.000409026079
153      -0.000025481022
154       0.000863745204
155      -0.000034650808
156      -0.000019048228
157      -0.000002061052
158       0.000427256734
159       0.000046472850
160      -0.000471692724
161       0.000595962296
162      -0.000269592570
163      -0.001427967764
164      -0.000098938082
165       0.000085379846
166      -0.000028687607
167      -0.000010724114
168       0.000005667816
169       0.000474085884
170      -0.000953947170
171      -0.000318969794
172       0.000207383075
173      -0.000366804509
174      -0.000083156392
175       0.000016674030
176      -0.000043429678
177      -0.000007830972
178       0.000115790466
179       0.000064223645
180      -0.000003259168
181      -0.000149491954
182      -0.000459099043
183      -0.000457779606
184       0.002182725968
185       0.000217423015
186       0.000109144341
187      -0.000290596985
188       0.000239312516
189      -0.000075979812
190      -0.000482688054
191      -0.001077192435
192      -0.000727891794
193       0.000390947610
194      -0.000098413883
195       0.000202014883
196       0.000085196907
197      -0.000066236991
198      -0.000033442952
199       0.000460801882
200      -0.000685111637
201      -0.000172045363
202       0.000191424905
203      -0.000174755051
204      -0.000033406607
205      -0.000375174259
206      -0.000237667078
207       0.000232638954
208       0.000170038589
209       0.000063645191
210       0.000022120233
211      -0.970658126627
212       0.003936673962
213      -0.051400889310
214      -0.004329700992
215      -0.000897998477
216      -0.000331468877
217       0.001258804872
218       0.000405711275
219       0.000107336648
220      -0.000646586459
221      -0.000173725602
222      -0.000099431443
223       0.000342585000
224      -0.000102466510
225       0.000217824345
226       0.000080643581
227      -0.000073244855
228      -0.000054179846
229       0.000218210306
230      -0.000371309239
231      -0.000097985157
232       0.000126031238
233       0.000107768702
234      -0.000017389543
235       0.000052016437
236       0.000005807483
237      -0.000037966183
238      -0.000037177450
239       0.000007457635
240      -0.000026894638
241       0.000136175050
242       0.000270016728
243       0.000039390945
244      -0.000110086233
245      -0.000019290410
246       0.000006846329
247       0.000047232138
248       0.000742091699
249       0.000238275573
250      -0.000471717807
251       0.000046177524
252      -0.000124034897
253      -0.000209127304
254      -0.000024969813
255       0.000022023804
256       0.000001764449